ITEM: TIMESTEP
41800
ITEM: NUMBER OF ENTRIES
7045
ITEM: BOX BOUNDS pp pp ff
0.0000000000000000e+00 7.2168784000000002e+01
0.0000000000000000e+00 7.2168784000000002e+01
0.0000000000000000e+00 1.2000000000000000e+01
ITEM: ENTRIES index c_1[1] c_1[2] c_1[3]
1 6001 6002 1 
2 6001 6009 2 
3 6002 244 3 
4 244 243 1 
5 1239 1240 1 
6 485 1239 2 
7 1240 6 3 
8 6 5 1 
9 2001 2002 1 
10 2001 2485 2 
11 2762 1504 3 
12 2762 2761 1 
13 2732 1504 3 
14 2732 2731 1 
15 2732 2762 3 
16 1504 2252 3 
17 1504 1503 1 
18 2252 2732 3 
19 2252 2251 1 
20 2252 2762 3 
21 2961 2962 1 
22 2495 2496 1 
23 1503 2761 2 
24 2496 2536 3 
25 3512 3526 3 
26 3526 3525 1 
27 3770 3769 1 
28 4286 4514 3 
29 4514 4513 1 
30 3015 3525 2 
31 4012 3770 3 
32 3491 3492 1 
33 4276 4048 3 
34 4276 4275 1 
35 4275 5525 2 
36 4999 5237 2 
37 5795 5796 1 
38 474 6014 3 
39 474 473 1 
40 6018 474 3 
41 6018 6017 1 
42 6014 6018 3 
43 6014 6013 1 
44 252 5772 3 
45 252 251 1 
46 6241 6242 1 
47 5772 6012 3 
48 5772 5771 1 
49 5766 5765 1 
50 5766 6242 3 
51 257 6241 2 
52 257 258 1 
53 488 487 1 
54 26 488 3 
55 515 516 1 
56 522 521 1 
57 522 768 3 
58 501 502 1 
59 270 522 3 
60 270 768 3 
61 270 526 3 
62 768 1022 3 
63 502 1022 3 
64 526 522 3 
65 526 1022 3 
66 1021 1022 1 
67 535 1021 2 
68 759 777 2 
69 1019 1779 2 
70 1002 1020 3 
71 1002 1001 1 
72 1002 1758 3 
73 1525 1526 1 
74 1525 1765 2 
75 2023 2293 2 
76 2503 2504 1 
77 2503 2739 2 
78 3256 3255 1 
79 2962 3256 3 
80 2531 2731 2 
81 4257 4258 1 
82 3985 4257 2 
83 2783 3269 2 
84 3269 3270 1 
85 3511 3512 1 
86 2784 2783 1 
87 4011 4012 1 
88 3812 3016 3 
89 3812 3811 1 
90 3798 3812 3 
91 3798 3797 1 
92 3016 3798 3 
93 3016 3015 1 
94 4500 4276 3 
95 4500 4499 1 
96 4048 4500 3 
97 4048 4047 1 
98 4047 4499 2 
99 6246 4488 3 
100 6246 6245 1 
101 4488 5238 3 
102 4488 4487 1 
103 5238 6246 3 
104 5238 5237 1 
105 6011 6021 2 
106 33 501 2 
107 258 38 3 
108 767 768 1 
109 767 1043 2 
110 1308 760 3 
111 1308 1307 1 
112 1054 1308 3 
113 1054 1053 1 
114 760 1054 3 
115 760 759 1 
116 2024 2023 1 
117 1744 2024 3 
118 1772 1282 3 
119 1772 1771 1 
120 1282 1774 3 
121 1282 1281 1 
122 1520 2296 3 
123 1520 1519 1 
124 1520 2818 3 
125 2296 2314 3 
126 2296 2295 1 
127 2314 1520 3 
128 2314 2313 1 
129 2314 2818 3 
130 2818 2296 3 
131 2818 2817 1 
132 2532 2772 3 
133 2532 2531 1 
134 2522 2532 3 
135 2522 2772 3 
136 3496 3022 3 
137 3022 3021 1 
138 3031 3309 2 
139 3309 3310 1 
140 3316 2524 3 
141 3316 3315 1 
142 3316 3790 3 
143 3033 4061 2 
144 3274 3242 3 
145 3274 3273 1 
146 3274 3536 3 
147 3315 4035 2 
148 3032 3536 3 
149 3032 3031 1 
150 3032 3274 3 
151 3242 3032 3 
152 3242 3241 1 
153 3270 4024 3 
154 3536 3242 3 
155 3536 3535 1 
156 3290 2784 3 
157 3537 3795 2 
158 3539 3540 1 
159 4037 4038 1 
160 5033 5034 1 
161 4519 5031 2 
162 5987 5988 1 
163 5765 6013 2 
164 554 546 3 
165 554 553 1 
166 546 792 3 
167 546 545 1 
168 792 554 3 
169 792 791 1 
170 545 553 2 
171 518 296 3 
172 518 517 1 
173 1044 1048 3 
174 1044 1043 1 
175 540 1044 3 
176 540 539 1 
177 1048 540 3 
178 1048 1047 1 
179 295 815 2 
180 296 786 3 
181 296 295 1 
182 815 816 1 
183 534 533 1 
184 1512 534 3 
185 1542 1792 3 
186 1542 1541 1 
187 1542 2308 3 
188 1539 1791 2 
189 1321 1322 1 
190 1321 2545 2 
191 2545 2546 1 
192 2776 2044 3 
193 2776 2775 1 
194 2313 2775 2 
195 2563 2817 2 
196 3310 3292 3 
197 3292 3291 1 
198 3283 3319 2 
199 4044 4034 3 
200 4052 4051 1 
201 4052 3312 3 
202 3804 4052 3 
203 4293 4557 2 
204 4294 5524 3 
205 4294 4293 1 
206 4558 5032 3 
207 4558 4557 1 
208 4558 5054 3 
209 4558 5254 3 
210 4296 4294 3 
211 4296 4295 1 
212 5032 5054 3 
213 5032 5031 1 
214 5054 5254 3 
215 5054 5053 1 
216 5524 4296 3 
217 5524 5523 1 
218 5254 5032 3 
219 5254 5253 1 
220 4767 4783 2 
221 6065 6066 1 
222 6030 5540 3 
223 6030 6029 1 
224 542 6030 3 
225 542 541 1 
226 5780 542 3 
227 5780 5779 1 
228 5780 6030 3 
229 5540 542 3 
230 5540 5539 1 
231 5540 5780 3 
232 6044 538 3 
233 6044 6043 1 
234 322 6044 3 
235 322 321 1 
236 538 322 3 
237 538 537 1 
238 327 328 1 
239 47 48 1 
240 47 517 2 
241 794 290 3 
242 1792 2308 3 
243 1792 1791 1 
244 290 289 1 
245 1301 1569 2 
246 2308 1290 3 
247 2308 2307 1 
248 1290 1792 3 
249 1290 1289 1 
250 1290 1542 3 
251 1540 1572 3 
252 1540 1539 1 
253 1064 1572 3 
254 1064 1063 1 
255 1064 1540 3 
256 1064 1302 3 
257 1302 1540 3 
258 1302 1301 1 
259 1572 1302 3 
260 1572 1571 1 
261 1333 2307 2 
262 1561 1562 1 
263 2289 2290 1 
264 1797 2021 2 
265 1823 2289 2 
266 2054 2332 3 
267 2054 2053 1 
268 2564 2776 3 
269 2564 2563 1 
270 2044 2564 3 
271 2044 2043 1 
272 1795 2053 2 
273 1796 2564 3 
274 1796 1795 1 
275 1796 2776 3 
276 1796 2044 3 
277 1824 1800 3 
278 1824 1823 1 
279 2292 1824 3 
280 2292 2291 1 
281 2022 1824 3 
282 2022 2021 1 
283 2022 2292 3 
284 1800 2292 3 
285 1800 1799 1 
286 1800 2022 3 
287 3291 3299 2 
288 3284 3048 3 
289 3284 3283 1 
290 3048 3548 3 
291 3048 3047 1 
292 3803 3804 1 
293 3803 4051 2 
294 3785 3786 1 
295 3785 4043 2 
296 4291 4587 2 
297 4085 4086 1 
298 4568 4768 3 
299 4768 4767 1 
300 4812 5056 3 
301 4812 4811 1 
302 4808 4812 3 
303 4808 4807 1 
304 5043 5317 2 
305 6062 64 3 
306 5317 5318 1 
307 5775 5823 2 
308 5823 5824 1 
309 5825 5826 1 
310 5825 6063 2 
311 523 524 1 
312 5805 6043 2 
313 329 330 1 
314 329 561 2 
315 6028 6076 3 
316 6028 6096 3 
317 6096 6076 3 
318 59 6055 2 
319 6055 6056 1 
320 560 66 3 
321 560 559 1 
322 95 96 1 
323 95 6081 2 
324 71 799 2 
325 83 307 2 
326 72 314 3 
327 72 71 1 
328 72 798 3 
329 826 1076 3 
330 826 825 1 
331 1072 820 3 
332 1072 1071 1 
333 798 314 3 
334 798 797 1 
335 70 798 3 
336 70 69 1 
337 70 72 3 
338 314 70 3 
339 314 313 1 
340 827 1095 2 
341 1798 1797 1 
342 1562 1798 3 
343 1822 1782 3 
344 2332 1334 3 
345 2332 2331 1 
346 1334 2054 3 
347 1334 1333 1 
348 1782 1781 1 
349 2852 2108 3 
350 2852 2851 1 
351 2108 1840 3 
352 2108 2107 1 
353 1799 2069 2 
354 1840 2852 3 
355 1840 1839 1 
356 3044 2828 3 
357 3044 3043 1 
358 3604 3044 3 
359 3604 3603 1 
360 2337 2338 1 
361 2035 2036 1 
362 4815 4816 1 
363 4816 4310 3 
364 4310 4309 1 
365 4544 4798 3 
366 4544 4543 1 
367 3836 4544 3 
368 3836 3835 1 
369 4063 4064 1 
370 5069 5070 1 
371 6061 6062 1 
372 6088 6087 1 
373 5316 6088 3 
374 73 74 1 
375 6080 6079 1 
376 544 6080 3 
377 5552 5542 3 
378 5552 5551 1 
379 300 76 3 
380 300 299 1 
381 300 324 3 
382 562 300 3 
383 562 561 1 
384 6054 354 3 
385 6054 6053 1 
386 6027 6028 1 
387 6027 6079 2 
388 354 5806 3 
389 354 353 1 
390 324 76 3 
391 324 323 1 
392 324 562 3 
393 5806 6054 3 
394 5806 5805 1 
395 76 562 3 
396 76 75 1 
397 104 6096 3 
398 104 6028 3 
399 104 6082 3 
400 103 104 1 
401 103 335 2 
402 96 1324 3 
403 1324 1323 1 
404 822 316 3 
405 822 821 1 
406 841 843 2 
407 2599 2600 1 
408 1311 2083 2 
409 2581 2582 1 
410 2805 2806 1 
411 2045 2046 1 
412 2045 3043 2 
413 2828 3604 3 
414 2828 2827 1 
415 2568 2567 1 
416 2806 2568 3 
417 2338 2072 3 
418 2072 2071 1 
419 3814 3564 3 
420 3814 3813 1 
421 3564 3298 3 
422 3564 3563 1 
423 3298 3068 3 
424 3298 3297 1 
425 3298 3814 3 
426 3297 3619 2 
427 3068 3564 3 
428 3068 3067 1 
429 3068 3814 3 
430 3829 3830 1 
431 3829 3847 2 
432 3552 3586 3 
433 3552 3551 1 
434 3552 3562 3 
435 3586 3072 3 
436 3586 3585 1 
437 3072 3552 3 
438 3072 3071 1 
439 3072 3562 3 
440 3801 4071 2 
441 4798 3836 3 
442 4798 4797 1 
443 4604 4603 1 
444 5346 4604 3 
445 91 5327 2 
446 5052 5051 1 
447 4339 4340 1 
448 5090 5052 3 
449 2077 2078 1 
450 1091 1103 2 
451 847 848 1 
452 847 2077 2 
453 2063 2064 1 
454 842 841 1 
455 1582 842 3 
456 1811 2623 2 
457 1599 2831 2 
458 3081 3082 1 
459 3324 3848 3 
460 3848 3847 1 
461 3354 3353 1 
462 2834 3354 3 
463 3606 3864 3 
464 3606 3605 1 
465 3864 3092 3 
466 3864 3863 1 
467 3092 3606 3 
468 3092 3091 1 
469 4074 3802 3 
470 4074 4073 1 
471 3802 5062 3 
472 3802 3801 1 
473 5062 4074 3 
474 5062 5061 1 
475 4355 4603 2 
476 3833 3834 1 
477 3833 4571 2 
478 4094 4356 3 
479 4094 4093 1 
480 4094 4578 3 
481 5345 5346 1 
482 4535 4577 2 
483 5079 5345 2 
484 5080 5562 3 
485 5080 5079 1 
486 5562 4876 3 
487 5562 5561 1 
488 4876 5080 3 
489 4876 4875 1 
490 5102 5094 3 
491 5102 5101 1 
492 5094 5348 3 
493 5094 5093 1 
494 5348 5102 3 
495 5348 5347 1 
496 4582 4581 1 
497 4826 4582 3 
498 5573 5574 1 
499 5051 5573 2 
500 4825 4826 1 
501 77 78 1 
502 77 823 2 
503 6125 6126 1 
504 115 857 2 
505 1086 1328 3 
506 1086 1085 1 
507 1328 1090 3 
508 1328 1327 1 
509 1090 1086 3 
510 1090 1089 1 
511 1338 1114 3 
512 1338 1337 1 
513 812 1338 3 
514 812 811 1 
515 812 1634 3 
516 1114 812 3 
517 1114 1113 1 
518 1114 1634 3 
519 1851 1852 1 
520 2131 2132 1 
521 2131 2135 2 
522 1835 2115 2 
523 3084 2826 3 
524 3084 3083 1 
525 2826 2862 3 
526 2826 2825 1 
527 2862 3084 3 
528 2862 2861 1 
529 2611 2612 1 
530 2611 3083 2 
531 2846 2352 3 
532 2352 2351 1 
533 4337 4338 1 
534 3091 3335 2 
535 3593 3863 2 
536 4609 4610 1 
537 4105 4106 1 
538 4105 4609 2 
539 3822 3850 3 
540 3822 3821 1 
541 4572 3822 3 
542 4572 4571 1 
543 3850 4572 3 
544 3850 3849 1 
545 4578 4356 3 
546 4578 4577 1 
547 4356 4576 3 
548 4356 4355 1 
549 4576 4094 3 
550 4576 4575 1 
551 4576 4578 3 
552 4599 4600 1 
553 4599 4875 2 
554 5135 5136 1 
555 5135 5347 2 
556 4595 5093 2 
557 5866 6074 3 
558 5866 5865 1 
559 348 5866 3 
560 348 347 1 
561 6074 348 3 
562 6074 6073 1 
563 628 1148 3 
564 1148 1147 1 
565 876 1350 3 
566 876 875 1 
567 1350 858 3 
568 1350 1349 1 
569 858 876 3 
570 858 857 1 
571 2134 1620 3 
572 1620 1619 1 
573 1634 1338 3 
574 1634 1633 1 
575 1852 1394 3 
576 2128 2136 3 
577 2128 2127 1 
578 1618 2128 3 
579 1618 1617 1 
580 1618 2092 3 
581 1618 2136 3 
582 2136 2092 3 
583 2136 2135 1 
584 2092 2128 3 
585 2092 2091 1 
586 1590 2376 3 
587 1590 1589 1 
588 2361 2362 1 
589 2363 2861 2 
590 3100 2854 3 
591 3366 3594 3 
592 3594 3593 1 
593 3851 3852 1 
594 3625 3626 1 
595 3625 3851 2 
596 4821 4822 1 
597 2842 4350 3 
598 2842 2841 1 
599 4569 4575 2 
600 4122 4346 3 
601 4122 4342 3 
602 4342 4822 3 
603 4342 4346 3 
604 4121 4122 1 
605 4121 4607 2 
606 4346 4345 1 
607 3875 3876 1 
608 3875 4589 2 
609 4592 4890 3 
610 4592 4591 1 
611 4890 5354 3 
612 4890 4889 1 
613 5354 4592 3 
614 5354 5353 1 
615 4600 4596 3 
616 4596 4595 1 
617 5136 5368 3 
618 361 362 1 
619 114 113 1 
620 6110 114 3 
621 347 5863 2 
622 5883 5884 1 
623 653 1147 2 
624 627 628 1 
625 6142 1372 3 
626 1372 1371 1 
627 395 1117 2 
628 1597 1619 2 
629 1605 1869 2 
630 1869 1870 1 
631 1131 1139 2 
632 3134 2372 3 
633 3134 3133 1 
634 1132 3134 3 
635 1132 1131 1 
636 2372 1132 3 
637 2372 2371 1 
638 3099 3100 1 
639 3861 3862 1 
640 2336 3124 3 
641 2336 2335 1 
642 3884 2336 3 
643 3884 3883 1 
644 3124 3884 3 
645 3124 3123 1 
646 4851 4881 2 
647 362 5864 3 
648 5864 5863 1 
649 615 1431 2 
650 390 124 3 
651 390 389 1 
652 1431 1432 1 
653 1133 1134 1 
654 1133 6121 2 
655 616 654 3 
656 616 615 1 
657 1136 1135 1 
658 1134 1136 3 
659 1661 1662 1 
660 1623 1624 1 
661 2114 3374 3 
662 2114 2113 1 
663 3374 2606 3 
664 3374 3373 1 
665 2606 2114 3 
666 2606 2605 1 
667 2396 2118 3 
668 2396 2395 1 
669 2118 1636 3 
670 2118 2117 1 
671 1636 2396 3 
672 1636 1635 1 
673 2647 2648 1 
674 2625 2647 2 
675 2402 2872 3 
676 2887 2888 1 
677 3138 3384 3 
678 3162 3370 3 
679 3371 3372 1 
680 3370 3369 1 
681 3135 3909 2 
682 3135 3136 1 
683 3376 4146 3 
684 3376 3375 1 
685 3369 3867 2 
686 3144 3376 3 
687 3144 3143 1 
688 3136 2878 3 
689 4146 3144 3 
690 4146 4145 1 
691 3383 3645 2 
692 3613 4633 2 
693 3614 4116 3 
694 3614 3613 1 
695 4116 4422 3 
696 4116 4115 1 
697 4422 3614 3 
698 4422 4421 1 
699 5122 4120 3 
700 5122 5121 1 
701 4361 4362 1 
702 4852 4394 3 
703 4852 4851 1 
704 4398 4852 3 
705 4398 4397 1 
706 4374 4852 3 
707 4374 4373 1 
708 4374 4394 3 
709 4374 4398 3 
710 4394 4398 3 
711 4394 4393 1 
712 4362 4384 3 
713 4384 4383 1 
714 5623 5895 2 
715 132 384 3 
716 132 131 1 
717 132 6122 3 
718 902 132 3 
719 902 901 1 
720 902 6122 3 
721 384 902 3 
722 384 383 1 
723 141 143 2 
724 6122 384 3 
725 6122 6121 1 
726 158 157 1 
727 6162 158 3 
728 1624 1898 3 
729 1898 1897 1 
730 1650 1649 1 
731 1662 1650 3 
732 622 1144 3 
733 1144 1143 1 
734 1907 2373 2 
735 1391 2605 2 
736 2662 2661 1 
737 2648 2662 3 
738 2871 2907 2 
739 1895 2401 2 
740 2401 2402 1 
741 3389 3390 1 
742 3389 4659 2 
743 4634 4633 1 
744 4396 4634 3 
745 4136 3916 3 
746 4136 4135 1 
747 3916 3678 3 
748 3916 3915 1 
749 5121 5143 2 
750 4653 4654 1 
751 4653 5147 2 
752 5147 5148 1 
753 4877 4931 2 
754 4393 5131 2 
755 4878 4400 3 
756 4878 4877 1 
757 5395 5396 1 
758 5395 5631 2 
759 5617 5618 1 
760 5896 5378 3 
761 5896 5895 1 
762 4399 5617 2 
763 5898 5896 3 
764 5898 5897 1 
765 416 144 3 
766 416 415 1 
767 416 642 3 
768 642 144 3 
769 642 641 1 
770 642 6148 3 
771 144 6148 3 
772 144 143 1 
773 6148 416 3 
774 6148 6147 1 
775 151 152 1 
776 151 641 2 
777 185 1161 2 
778 1161 1162 1 
779 2175 2176 1 
780 1908 1907 1 
781 2148 1908 3 
782 1896 1670 3 
783 1896 1895 1 
784 1670 1364 3 
785 1670 1669 1 
786 1364 1896 3 
787 1364 1363 1 
788 2908 2907 1 
789 2664 2908 3 
790 2655 3151 2 
791 2889 3681 2 
792 2889 2890 1 
793 3707 3708 1 
794 4153 4154 1 
795 4412 4411 1 
796 3678 4136 3 
797 3678 3677 1 
798 3377 3378 1 
799 5131 5132 1 
800 5144 5143 1 
801 5154 5144 3 
802 4661 4662 1 
803 4661 4929 2 
804 5393 5394 1 
805 4929 4930 1 
806 4400 4888 3 
807 4400 4399 1 
808 4888 4878 3 
809 4888 4887 1 
810 5378 5898 3 
811 5378 5377 1 
812 4390 4389 1 
813 5370 4390 3 
814 5893 5894 1 
815 5652 5666 3 
816 5652 5651 1 
817 5897 6155 2 
818 1163 1164 1 
819 163 6181 2 
820 422 1152 3 
821 422 421 1 
822 1152 656 3 
823 1152 1151 1 
824 934 422 3 
825 934 933 1 
826 934 1152 3 
827 656 422 3 
828 656 655 1 
829 656 934 3 
830 415 421 2 
831 1681 1682 1 
832 1901 1903 2 
833 3401 3435 2 
834 3401 3402 1 
835 3435 3436 1 
836 1903 1904 1 
837 2663 2683 2 
838 2663 2664 1 
839 3402 2900 3 
840 2900 2899 1 
841 3186 2670 3 
842 3186 3185 1 
843 3176 3175 1 
844 2160 3176 3 
845 2674 3186 3 
846 2674 2673 1 
847 2670 2192 3 
848 2670 2669 1 
849 2670 2674 3 
850 2899 3673 2 
851 3649 3650 1 
852 2933 3649 2 
853 3632 3682 3 
854 3632 3631 1 
855 2428 3632 3 
856 2428 2427 1 
857 3682 2428 3 
858 3682 3681 1 
859 2934 3174 3 
860 2934 2933 1 
861 3174 2656 3 
862 3174 3173 1 
863 2656 2934 3 
864 2656 2655 1 
865 4458 4457 1 
866 4444 4458 3 
867 4430 4168 3 
868 4430 4429 1 
869 4430 4674 3 
870 4443 4444 1 
871 4168 4428 3 
872 4168 4167 1 
873 5156 4962 3 
874 5156 5155 1 
875 4402 5156 3 
876 4402 4401 1 
877 4962 4402 3 
878 4962 4961 1 
879 4910 4922 3 
880 3893 3894 1 
881 5186 5174 3 
882 5186 5185 1 
883 5174 5446 3 
884 5174 5173 1 
885 4930 5174 3 
886 4906 5186 3 
887 4906 4930 3 
888 5446 5186 3 
889 5446 5445 1 
890 4196 4195 1 
891 4908 4948 3 
892 4908 4910 3 
893 5185 5447 2 
894 5642 404 3 
895 5642 5641 1 
896 5926 5642 3 
897 5926 5925 1 
898 5165 5166 1 
899 404 5926 3 
900 404 403 1 
901 5920 6182 3 
902 5920 5919 1 
903 652 946 3 
904 652 651 1 
905 674 430 3 
906 674 673 1 
907 946 448 3 
908 946 945 1 
909 673 951 2 
910 657 683 2 
911 952 460 3 
912 952 951 1 
913 701 1173 2 
914 671 921 2 
915 921 922 1 
916 941 942 1 
917 1174 1208 3 
918 1174 1173 1 
919 1174 1182 3 
920 954 1208 3 
921 954 953 1 
922 954 1174 3 
923 1181 1191 2 
924 2466 1926 3 
925 1926 1925 1 
926 1894 1922 3 
927 1894 1893 1 
928 1700 1894 3 
929 1700 1699 1 
930 1922 1700 3 
931 1922 1921 1 
932 1935 2927 2 
933 2194 2444 3 
934 2194 2193 1 
935 2185 2186 1 
936 2185 2193 2 
937 2902 2684 3 
938 2684 2683 1 
939 3674 3673 1 
940 5160 4414 3 
941 5160 5159 1 
942 4914 3938 3 
943 4914 4913 1 
944 4914 5160 3 
945 3938 4414 3 
946 3938 3937 1 
947 3938 5160 3 
948 5413 5659 2 
949 5415 5416 1 
950 5415 5673 2 
951 5673 5674 1 
952 5660 5956 3 
953 5660 5659 1 
954 5444 5660 3 
955 5444 5443 1 
956 5956 5444 3 
957 5956 5955 1 
958 196 194 3 
959 194 193 1 
960 189 190 1 
961 189 695 2 
962 439 665 2 
963 178 177 1 
964 702 952 3 
965 702 701 1 
966 460 702 3 
967 460 459 1 
968 460 692 3 
969 692 702 3 
970 692 691 1 
971 692 952 3 
972 936 682 3 
973 936 935 1 
974 710 936 3 
975 710 709 1 
976 682 672 3 
977 682 681 1 
978 682 710 3 
979 672 936 3 
980 672 671 1 
981 672 710 3 
982 1453 1665 2 
983 1665 1666 1 
984 1213 1719 2 
985 1172 1171 1 
986 2927 2928 1 
987 1663 1664 1 
988 1663 2721 2 
989 3391 3392 1 
990 3201 3202 1 
991 3172 3674 3 
992 2929 2930 1 
993 2923 2947 2 
994 3712 3928 3 
995 3712 3711 1 
996 3458 3712 3 
997 3458 3457 1 
998 3928 3458 3 
999 3928 3927 1 
1000 3457 3683 2 
1001 3421 3422 1 
1002 3421 3711 2 
1003 3661 3927 2 
1004 3476 3412 3 
1005 4201 4202 1 
1006 4686 4716 3 
1007 4426 3662 3 
1008 4426 4425 1 
1009 4668 4426 3 
1010 4668 4667 1 
1011 3662 4668 3 
1012 3662 3661 1 
1013 3962 3662 3 
1014 3962 3961 1 
1015 3962 4668 3 
1016 3962 4426 3 
1017 3738 3737 1 
1018 4716 4715 1 
1019 3948 3947 1 
1020 4216 4684 3 
1021 4216 4215 1 
1022 4216 4424 3 
1023 4968 3948 3 
1024 4424 4684 3 
1025 4424 4423 1 
1026 3429 3693 2 
1027 3429 3430 1 
1028 4441 4442 1 
1029 4684 4162 3 
1030 4684 4683 1 
1031 4162 4216 3 
1032 4162 4161 1 
1033 4162 4424 3 
1034 5458 5224 3 
1035 5224 5223 1 
1036 4683 4945 2 
1037 5191 5192 1 
1038 4414 4914 3 
1039 4414 4413 1 
1040 5201 5202 1 
1041 5189 5201 2 
1042 5189 5190 1 
1043 5457 5458 1 
1044 4697 5457 2 
1045 5936 5935 1 
1046 5674 5936 3 
1047 423 5933 2 
1048 6174 5206 3 
1049 6174 6173 1 
1050 5206 5964 3 
1051 5206 5205 1 
1052 5206 5938 3 
1053 6222 6221 1 
1054 190 170 3 
1055 170 169 1 
1056 706 180 3 
1057 706 705 1 
1058 180 5968 3 
1059 180 179 1 
1060 5968 706 3 
1061 5968 5967 1 
1062 5960 450 3 
1063 5960 5959 1 
1064 6198 5960 3 
1065 6198 6197 1 
1066 450 6198 3 
1067 450 449 1 
1068 222 178 3 
1069 715 716 1 
1070 715 5959 2 
1071 6195 6196 1 
1072 215 6205 2 
1073 215 216 1 
1074 459 935 2 
1075 6205 6206 1 
1076 6196 406 3 
1077 1720 1719 1 
1078 1942 1964 3 
1079 1942 1941 1 
1080 1964 1720 3 
1081 1964 1963 1 
1082 3431 3432 1 
1083 2195 2196 1 
1084 2195 2207 2 
1085 3202 2924 3 
1086 2924 2923 1 
1087 2948 3958 3 
1088 2948 2947 1 
1089 2948 3450 3 
1090 2948 3946 3 
1091 3958 3946 3 
1092 3958 3957 1 
1093 3683 3684 1 
1094 3449 3941 2 
1095 3974 3738 3 
1096 3702 3701 1 
1097 3422 3702 3 
1098 4685 4686 1 
1099 4220 4672 3 
1100 3961 4435 2 
1101 3694 4956 3 
1102 3694 3693 1 
1103 3694 3934 3 
1104 3694 3932 3 
1105 3932 3934 3 
1106 3932 3931 1 
1107 3973 3974 1 
1108 3973 4687 2 
1109 4694 4212 3 
1110 4694 4693 1 
1111 3686 4694 3 
1112 3686 3685 1 
1113 4212 3686 3 
1114 4212 4211 1 
1115 3934 4956 3 
1116 3934 3933 1 
1117 4956 3932 3 
1118 4956 4955 1 
1119 3947 4709 2 
1120 4215 4437 2 
1121 4967 4968 1 
1122 4161 5199 2 
1123 4946 4945 1 
1124 5190 4946 3 
1125 5718 5678 3 
1126 5678 5677 1 
1127 5723 5724 1 
1128 5723 6221 2 
1129 5964 6174 3 
1130 5964 5963 1 
1131 5938 5964 3 
1132 5938 5937 1 
1133 5938 6174 3 
1134 5932 5966 3 
1135 5932 5931 1 
1136 5932 5934 3 
1137 5966 204 3 
1138 5966 5965 1 
1139 5934 5966 3 
1140 5934 5933 1 
1141 204 5932 3 
1142 204 203 1 
1143 204 5934 3 
1144 5967 6173 2 
1145 462 198 3 
1146 6163 6164 1 
1147 198 197 1 
1148 6164 5486 3 
1149 5486 5485 1 
1150 461 462 1 
1151 1185 1186 1 
1152 1710 720 3 
1153 1710 1709 1 
1154 720 968 3 
1155 720 719 1 
1156 1460 2216 3 
1157 1460 1459 1 
1158 1982 1460 3 
1159 1982 1981 1 
1160 2211 2461 2 
1161 1997 2463 2 
1162 2208 2207 1 
1163 2208 3432 3 
1164 2208 2702 3 
1165 2196 2208 3 
1166 2196 2702 3 
1167 2196 3432 3 
1168 3701 3975 2 
1169 3459 3957 2 
1170 3975 3976 1 
1171 4164 4450 3 
1172 4450 4449 1 
1173 3460 3459 1 
1174 3944 3714 3 
1175 3976 3460 3 
1176 4211 4465 2 
1177 4438 4206 3 
1178 4438 4437 1 
1179 4438 4474 3 
1180 4988 4438 3 
1181 4988 4987 1 
1182 4206 4988 3 
1183 4206 4205 1 
1184 4474 4206 3 
1185 4474 4473 1 
1186 4474 4988 3 
1187 4992 4714 3 
1188 4992 4991 1 
1189 5724 5714 3 
1190 5714 5713 1 
1191 731 749 2 
1192 217 1951 2 
1193 1951 1952 1 
1194 1475 1476 1 
1195 1725 1726 1 
1196 1211 1212 1 
1197 1211 1221 2 
1198 948 1220 3 
1199 1220 1219 1 
1200 1459 1709 2 
1201 1466 1238 3 
1202 1736 2236 3 
1203 1736 1735 1 
1204 2216 1982 3 
1205 2216 2215 1 
1206 1481 2239 2 
1207 1491 1735 2 
1208 2461 2462 1 
1209 2453 2454 1 
1210 2453 3519 2 
1211 3714 3713 1 
1212 4479 4713 2 
1213 4969 4987 2 
1214 4982 4992 3 
1215 4982 4981 1 
1216 4259 4721 2 
1217 4714 4982 3 
1218 4714 4713 1 
1219 5713 6005 2 
1220 230 5468 3 
1221 230 229 1 
1222 231 5973 2 
1223 5974 226 3 
1224 5974 5973 1 
1225 750 734 3 
1226 750 749 1 
1227 734 1004 3 
1228 734 733 1 
1229 1223 1257 2 
1230 469 737 2 
1231 1247 1475 2 
1232 1224 1730 3 
1233 1224 1223 1 
1234 1730 736 3 
1235 1730 1729 1 
1236 736 1224 3 
1237 736 735 1 
1238 1222 1221 1 
1239 2229 2230 1 
1240 1729 2229 2 
1241 1993 1994 1 
1242 1993 2729 2 
1243 1497 1498 1 
1244 1994 2240 3 
1245 2240 2239 1 
1246 1498 1994 3 
1247 1498 2240 3 
1248 1718 2240 3 
1249 1465 1466 1 
1250 1465 1473 2 
1251 2972 2242 3 
1252 2972 2971 1 
1253 2242 2224 3 
1254 2242 2241 1 
1255 2224 2972 3 
1256 2224 2223 1 
1257 2490 2489 1 
1258 2248 2490 3 
1259 2733 2985 2 
1260 2733 2734 1 
1261 2976 3464 3 
1262 3233 3234 1 
1263 2231 2232 1 
1264 2231 3233 2 
1265 3465 3749 2 
1266 3749 3750 1 
1267 3466 3762 3 
1268 3466 3465 1 
1269 4464 3466 3 
1270 4464 4463 1 
1271 3762 4464 3 
1272 3762 3761 1 
1273 4983 4984 1 
1274 4983 4253 2 
1275 4480 4260 3 
1276 4480 4479 1 
1277 4970 4480 3 
1278 4970 4969 1 
1279 4260 4970 3 
1280 4260 4259 1 
1281 4990 5222 3 
1282 4990 4989 1 
1283 4975 4976 1 
1284 13 229 2 
1285 2 4998 3 
1286 2 1 1 
1287 2 6000 3 
1288 2 5456 3 
1289 4998 6000 3 
1290 4998 4997 1 
1291 5456 4998 3 
1292 5456 5455 1 
1293 6000 5456 3 
1294 6000 5999 1 
1295 254 508 3 
1296 254 253 1 
1297 6025 6026 1 
1298 508 5982 3 
1299 508 507 1 
1300 5982 254 3 
1301 5982 5981 1 
1302 245 246 1 
1303 245 1005 2 
1304 475 476 1 
1305 243 475 2 
1306 1004 750 3 
1307 1004 1003 1 
1308 260 259 1 
1309 5 733 2 
1310 1241 1242 1 
1311 1537 1538 1 
1312 2506 2505 1 
1313 1538 2506 3 
1314 2251 2489 2 
1315 2536 2535 1 
1316 2247 2248 1 
1317 3464 3463 1 
1318 3504 4022 3 
1319 4015 4016 1 
1320 4223 4224 1 
1321 4254 4253 1 
1322 4735 4736 1 
1323 4493 4735 2 
1324 5731 5732 1 
1325 266 265 1 
1326 5732 266 3 
1327 5981 6007 2 
1328 9 10 1 
1329 9 267 2 
1330 29 251 2 
1331 267 268 1 
1332 268 1024 3 
1333 753 754 1 
1334 259 753 2 
1335 30 6016 3 
1336 30 29 1 
1337 6016 520 3 
1338 6016 6015 1 
1339 520 30 3 
1340 520 519 1 
1341 525 526 1 
1342 757 758 1 
1343 1024 1023 1 
1344 754 756 3 
1345 756 755 1 
1346 1012 782 3 
1347 1012 1011 1 
1348 1012 1030 3 
1349 1012 1276 3 
1350 1276 1030 3 
1351 1276 1275 1 
1352 233 269 2 
1353 234 233 1 
1354 486 485 1 
1355 1242 486 3 
1356 506 234 3 
1357 1030 782 3 
1358 1030 1029 1 
1359 782 1276 3 
1360 782 781 1 
1361 284 283 1 
1362 269 270 1 
1363 1244 778 3 
1364 1244 1243 1 
1365 778 1042 3 
1366 778 777 1 
1367 1042 1244 3 
1368 1042 1041 1 
1369 1011 1483 2 
1370 1483 1484 1 
1371 297 298 1 
1372 297 1749 2 
1373 981 1235 2 
1374 981 982 1 
1375 1280 1786 3 
1376 1280 1279 1 
1377 1008 1280 3 
1378 1008 1007 1 
1379 1008 1508 3 
1380 1508 1280 3 
1381 1508 1507 1 
1382 1508 1786 3 
1383 1786 1008 3 
1384 1786 1785 1 
1385 1020 536 3 
1386 1020 1019 1 
1387 1279 2019 2 
1388 1747 1757 2 
1389 2002 2486 3 
1390 2486 2485 1 
1391 2486 2774 3 
1392 1724 1748 3 
1393 1724 1723 1 
1394 1724 2012 3 
1395 2012 1748 3 
1396 2012 2011 1 
1397 1748 1766 3 
1398 1748 1747 1 
1399 1766 1724 3 
1400 1766 1765 1 
1401 1766 2012 3 
1402 2049 2050 1 
1403 1723 2253 2 
1404 2011 2741 2 
1405 2741 2742 1 
1406 2253 2254 1 
1407 1751 1752 1 
1408 1751 2769 2 
1409 2276 2018 3 
1410 2276 2275 1 
1411 2754 2276 3 
1412 2754 2753 1 
1413 2018 2508 3 
1414 2018 2017 1 
1415 2018 2754 3 
1416 2508 2276 3 
1417 2508 2507 1 
1418 2508 2754 3 
1419 1996 1995 1 
1420 2746 1996 3 
1421 2992 2778 3 
1422 2992 2991 1 
1423 2992 3002 3 
1424 2778 3006 3 
1425 2778 2777 1 
1426 3002 2778 3 
1427 3002 3001 1 
1428 3002 3006 3 
1429 3261 3545 2 
1430 3006 2992 3 
1431 3006 3005 1 
1432 2998 2514 3 
1433 2998 2997 1 
1434 3484 2998 3 
1435 3484 3483 1 
1436 2514 3484 3 
1437 2514 2513 1 
1438 3010 3986 3 
1439 3010 3009 1 
1440 3262 3788 3 
1441 3262 3261 1 
1442 2518 3262 3 
1443 2518 2517 1 
1444 2518 3788 3 
1445 3788 2262 3 
1446 3788 3787 1 
1447 2262 3262 3 
1448 2262 2261 1 
1449 2262 2518 3 
1450 3030 3756 3 
1451 3030 3029 1 
1452 3004 3030 3 
1453 3004 3003 1 
1454 3760 3238 3 
1455 3760 3759 1 
1456 3756 3004 3 
1457 3756 3755 1 
1458 3303 3304 1 
1459 3503 3504 1 
1460 3992 3502 3 
1461 3502 3501 1 
1462 3769 4503 2 
1463 3505 3765 2 
1464 4285 4286 1 
1465 4017 4285 2 
1466 4744 3766 3 
1467 4744 4743 1 
1468 4725 4726 1 
1469 3766 3744 3 
1470 3766 3765 1 
1471 3766 4290 3 
1472 3744 4744 3 
1473 3744 3743 1 
1474 3744 4290 3 
1475 4748 4462 3 
1476 4290 4744 3 
1477 4290 4289 1 
1478 5046 5045 1 
1479 4462 4461 1 
1480 4794 4728 3 
1481 4794 4793 1 
1482 4245 4529 2 
1483 4785 4786 1 
1484 4529 4530 1 
1485 4007 4008 1 
1486 4007 4785 2 
1487 4498 4728 3 
1488 4498 4497 1 
1489 4498 4794 3 
1490 4235 4236 1 
1491 4235 4461 2 
1492 4758 4724 3 
1493 4509 4727 2 
1494 4724 4723 1 
1495 5259 5260 1 
1496 5259 5737 2 
1497 5481 5482 1 
1498 5249 5250 1 
1499 5249 5481 2 
1500 4742 4762 3 
1501 4742 4741 1 
1502 4515 4741 2 
1503 5526 5738 3 
1504 5526 5525 1 
1505 5526 5744 3 
1506 5744 5738 3 
1507 5744 5743 1 
1508 5738 4494 3 
1509 5738 5737 1 
1510 5520 5519 1 
1511 5496 5520 3 
1512 4494 5744 3 
1513 4494 4493 1 
1514 4494 5526 3 
1515 5530 4776 3 
1516 5530 5529 1 
1517 4510 5530 3 
1518 4510 4509 1 
1519 4776 4510 3 
1520 4776 4775 1 
1521 5014 5502 3 
1522 5502 5501 1 
1523 5508 4994 3 
1524 4729 4993 2 
1525 5282 5752 3 
1526 4755 5501 2 
1527 5006 5764 3 
1528 5006 5005 1 
1529 4994 4993 1 
1530 5752 5751 1 
1531 5767 5768 1 
1532 5734 5472 3 
1533 5734 5733 1 
1534 5734 6232 3 
1535 6232 5472 3 
1536 6232 6231 1 
1537 5512 6020 3 
1538 5512 5511 1 
1539 6020 5770 3 
1540 6020 6019 1 
1541 5741 5751 2 
1542 5770 5512 3 
1543 5770 5769 1 
1544 5472 5748 3 
1545 5472 5471 1 
1546 27 28 1 
1547 27 6033 2 
1548 5783 5795 2 
1549 5783 5784 1 
1550 5748 5734 3 
1551 5748 5747 1 
1552 5748 6232 3 
1553 15 499 2 
1554 249 5517 2 
1555 6019 6225 2 
1556 6012 252 3 
1557 6012 6011 1 
1558 6010 6009 1 
1559 6010 5766 3 
1560 23 24 1 
1561 512 511 1 
1562 512 274 3 
1563 512 5766 3 
1564 22 512 3 
1565 22 274 3 
1566 22 6242 3 
1567 6242 6010 3 
1568 274 273 1 
1569 274 6010 3 
1570 787 788 1 
1571 787 1029 2 
1572 25 26 1 
1573 763 764 1 
1574 271 763 2 
1575 516 284 3 
1576 3 747 2 
1577 781 1523 2 
1578 747 748 1 
1579 272 1036 3 
1580 272 271 1 
1581 1509 1510 1 
1582 536 1002 3 
1583 536 535 1 
1584 536 1758 3 
1585 1758 1020 3 
1586 1758 1757 1 
1587 2020 1780 3 
1588 2020 2019 1 
1589 1034 2020 3 
1590 1034 1033 1 
1591 1780 1034 3 
1592 1780 1779 1 
1593 1746 1034 3 
1594 1746 1745 1 
1595 1746 1780 3 
1596 1746 2020 3 
1597 1266 2014 3 
1598 1266 1265 1 
1599 1056 1266 3 
1600 1056 1055 1 
1601 2266 2770 3 
1602 2266 2265 1 
1603 1265 2273 2 
1604 2294 2266 3 
1605 2294 2293 1 
1606 2274 2266 3 
1607 2274 2273 1 
1608 2274 2294 3 
1609 2274 2770 3 
1610 2770 2294 3 
1611 2770 2769 1 
1612 2785 2786 1 
1613 1519 2275 2 
1614 2525 2785 2 
1615 2525 2526 1 
1616 2504 2740 3 
1617 2504 2982 3 
1618 2982 2981 1 
1619 2740 2739 1 
1620 2740 2982 3 
1621 2286 2540 3 
1622 2286 2285 1 
1623 3020 2798 3 
1624 3020 3019 1 
1625 3020 3546 3 
1626 3020 3026 3 
1627 3546 3026 3 
1628 3546 3545 1 
1629 2798 3546 3 
1630 2798 2797 1 
1631 2017 2513 2 
1632 3026 2798 3 
1633 3026 3025 1 
1634 3986 3510 3 
1635 3986 3985 1 
1636 3510 3010 3 
1637 3510 3509 1 
1638 3495 3496 1 
1639 2511 2512 1 
1640 2511 2767 2 
1641 3271 3495 2 
1642 2768 2792 3 
1643 2768 2767 1 
1644 2792 3268 3 
1645 2792 2791 1 
1646 3268 2768 3 
1647 3268 3267 1 
1648 2261 2771 2 
1649 3522 3521 1 
1650 4258 3522 3 
1651 3264 3538 3 
1652 3264 3263 1 
1653 3264 3272 3 
1654 3272 3034 3 
1655 3272 3271 1 
1656 3272 3538 3 
1657 3034 3264 3 
1658 3034 3033 1 
1659 3550 3549 1 
1660 3304 3550 3 
1661 3287 3521 2 
1662 3029 4023 2 
1663 3543 3811 2 
1664 3809 3810 1 
1665 3540 4524 3 
1666 3013 4513 2 
1667 4524 4523 1 
1668 3778 3777 1 
1669 4028 3544 3 
1670 4028 4027 1 
1671 3527 3528 1 
1672 3527 3777 2 
1673 4728 4268 3 
1674 4728 4727 1 
1675 4268 4498 3 
1676 4268 4267 1 
1677 4268 4794 3 
1678 4019 4020 1 
1679 4271 4743 2 
1680 4246 4526 3 
1681 4246 4245 1 
1682 4246 4274 3 
1683 4788 4246 3 
1684 4788 4787 1 
1685 4274 4788 3 
1686 4274 4273 1 
1687 4274 4526 3 
1688 4526 4788 3 
1689 4526 4525 1 
1690 3771 3772 1 
1691 3771 4723 2 
1692 4261 4267 2 
1693 4273 5297 2 
1694 4775 5011 2 
1695 5011 5012 1 
1696 5507 5508 1 
1697 4262 4516 3 
1698 4262 4261 1 
1699 4780 4262 3 
1700 4780 4779 1 
1701 4516 4780 3 
1702 4516 4515 1 
1703 5495 5496 1 
1704 5269 5495 2 
1705 5013 5014 1 
1706 5764 4782 3 
1707 5764 5763 1 
1708 4782 5006 3 
1709 4782 4781 1 
1710 4781 5529 2 
1711 4773 5013 2 
1712 5015 5519 2 
1713 5533 5534 1 
1714 5001 5263 2 
1715 4753 5533 2 
1716 16 6034 3 
1717 16 15 1 
1718 6034 500 3 
1719 6034 6033 1 
1720 500 16 3 
1721 500 499 1 
1722 5762 5004 3 
1723 5762 5761 1 
1724 5004 4766 3 
1725 5004 5003 1 
1726 4766 5762 3 
1727 4766 4765 1 
1728 5784 6038 3 
1729 239 240 1 
1730 6038 6037 1 
1731 247 5753 2 
1732 5774 6024 3 
1733 5774 5773 1 
1734 5800 5774 3 
1735 5800 5799 1 
1736 5800 6032 3 
1737 6032 5774 3 
1738 6032 6031 1 
1739 6024 5800 3 
1740 6024 6023 1 
1741 6024 6032 3 
1742 5515 5516 1 
1743 5003 5515 2 
1744 273 541 2 
1745 21 22 1 
1746 21 511 2 
1747 248 12 3 
1748 248 247 1 
1749 34 248 3 
1750 34 33 1 
1751 34 6022 3 
1752 6022 248 3 
1753 6022 6021 1 