ITEM: TIMESTEP
11880
ITEM: NUMBER OF ENTRIES
3452
ITEM: BOX BOUNDS pp pp ff
0.0000000000000000e+00 7.2168784000000002e+01
0.0000000000000000e+00 7.2168784000000002e+01
0.0000000000000000e+00 1.2000000000000000e+01
ITEM: ENTRIES index c_1[1] c_1[2] c_1[3]
1 6009 6010 1 
2 505 506 1 
3 745 746 1 
4 233 234 1 
5 233 269 2 
6 269 270 1 
7 1763 1764 1 
8 1761 1762 1 
9 1279 1280 1 
10 1515 1516 1 
11 1011 1012 1 
12 1525 1526 1 
13 1501 1502 1 
14 2761 2762 1 
15 2503 2504 1 
16 2731 2732 1 
17 2513 2514 1 
18 3011 3012 1 
19 3001 3002 1 
20 3495 3496 1 
21 3494 3493 1 
22 3758 3494 3 
23 4011 4012 1 
24 3493 4021 2 
25 3511 3512 1 
26 4021 4022 1 
27 3761 3762 1 
28 4503 4504 1 
29 3773 3774 1 
30 4499 4500 1 
31 4757 4758 1 
32 4283 4284 1 
33 5533 5534 1 
34 6224 6008 3 
35 6008 6007 1 
36 5501 5502 1 
37 6001 6002 1 
38 22 21 1 
39 512 22 3 
40 511 512 1 
41 511 21 2 
42 529 530 1 
43 251 252 1 
44 522 521 1 
45 501 502 1 
46 1019 1020 1 
47 1039 1040 1 
48 271 272 1 
49 526 522 3 
50 515 516 1 
51 1033 1034 1 
52 2011 2012 1 
53 3006 2992 3 
54 2992 2991 1 
55 2261 2262 1 
56 3009 3010 1 
57 3241 3242 1 
58 2511 2512 1 
59 4271 4272 1 
60 4513 4514 1 
61 4755 4756 1 
62 5281 5282 1 
63 6231 6232 1 
64 5003 5004 1 
65 5765 5766 1 
66 6013 6014 1 
67 273 274 1 
68 273 541 2 
69 541 542 1 
70 6041 6042 1 
71 283 284 1 
72 1023 1024 1 
73 535 536 1 
74 535 1021 2 
75 1021 1022 1 
76 1043 1044 1 
77 773 774 1 
78 1025 1026 1 
79 539 540 1 
80 1772 1282 3 
81 1771 1772 1 
82 2283 2284 1 
83 1537 1538 1 
84 1283 1284 1 
85 2033 2034 1 
86 2535 2536 1 
87 2293 2294 1 
88 1787 1788 1 
89 2531 2532 1 
90 2765 2766 1 
91 3041 3042 1 
92 2281 2282 1 
93 2767 2768 1 
94 2775 2776 1 
95 2781 2782 1 
96 3271 3272 1 
97 3264 3034 3 
98 3525 3526 1 
99 3303 3304 1 
100 4269 4270 1 
101 4281 4282 1 
102 4281 4787 2 
103 4787 4788 1 
104 5253 5254 1 
105 5525 5526 1 
106 5271 5272 1 
107 5015 5016 1 
108 5777 5778 1 
109 6011 6012 1 
110 5771 5772 1 
111 6023 6024 1 
112 6051 6052 1 
113 523 524 1 
114 321 322 1 
115 791 792 1 
116 1531 1532 1 
117 1282 1281 1 
118 1303 1304 1 
119 1521 1522 1 
120 2541 2542 1 
121 1773 1774 1 
122 2043 2044 1 
123 3055 3056 1 
124 2524 3316 3 
125 2524 2523 1 
126 3316 3534 3 
127 3316 3315 1 
128 3534 2524 3 
129 3534 3533 1 
130 3557 3558 1 
131 3034 3033 1 
132 3795 3796 1 
133 4767 4768 1 
134 4301 4302 1 
135 4532 4531 1 
136 5291 5292 1 
137 4527 4528 1 
138 5053 5054 1 
139 5295 5296 1 
140 5294 5332 3 
141 5332 5331 1 
142 5299 5300 1 
143 5543 5544 1 
144 5823 5824 1 
145 5779 5780 1 
146 5801 5802 1 
147 31 32 1 
148 35 36 1 
149 35 6035 2 
150 6035 6036 1 
151 537 538 1 
152 5531 5532 1 
153 322 6044 3 
154 6044 6043 1 
155 6057 6058 1 
156 79 80 1 
157 783 784 1 
158 1057 1058 1 
159 553 554 1 
160 295 296 1 
161 552 551 1 
162 1058 552 3 
163 533 534 1 
164 1053 1054 1 
165 1781 1782 1 
166 1541 1542 1 
167 1569 1570 1 
168 1571 1572 1 
169 1321 1322 1 
170 2331 2332 1 
171 2303 2304 1 
172 2047 2048 1 
173 2021 2022 1 
174 2571 2572 1 
175 3035 3036 1 
176 2801 2802 1 
177 3309 3310 1 
178 3283 3284 1 
179 3293 3294 1 
180 3581 3582 1 
181 4553 4554 1 
182 3573 3574 1 
183 4309 4310 1 
184 4309 4543 2 
185 4543 4544 1 
186 4063 4064 1 
187 4315 4316 1 
188 4805 4806 1 
189 4801 4802 1 
190 4791 4792 1 
191 4303 4304 1 
192 5031 5032 1 
193 4813 4814 1 
194 5541 5542 1 
195 5786 5812 3 
196 6071 6072 1 
197 52 51 1 
198 323 324 1 
199 315 316 1 
200 315 6057 2 
201 61 62 1 
202 6061 6062 1 
203 6053 6054 1 
204 561 562 1 
205 313 314 1 
206 589 590 1 
207 815 816 1 
208 1323 1324 1 
209 551 1323 2 
210 811 812 1 
211 1071 1072 1 
212 581 582 1 
213 1313 1314 1 
214 1333 1334 1 
215 1073 1074 1 
216 1572 1302 3 
217 1577 1578 1 
218 1821 1822 1 
219 1302 1301 1 
220 2823 2824 1 
221 2551 2552 1 
222 3565 3566 1 
223 2799 2800 1 
224 3295 3296 1 
225 3071 3072 1 
226 3561 3562 1 
227 3301 3302 1 
228 3051 3052 1 
229 3582 3322 3 
230 4571 4572 1 
231 4551 4552 1 
232 4325 4326 1 
233 4073 4074 1 
234 4297 4298 1 
235 5073 5074 1 
236 5573 5574 1 
237 5337 5338 1 
238 5051 5052 1 
239 5563 5564 1 
240 5563 5811 2 
241 5785 5786 1 
242 5812 5811 1 
243 5557 5558 1 
244 63 5557 2 
245 5805 5806 1 
246 6064 52 3 
247 64 63 1 
248 6062 64 3 
249 335 336 1 
250 1083 1084 1 
251 1563 1564 1 
252 1061 1062 1 
253 1339 1340 1 
254 2077 2078 1 
255 2341 2342 1 
256 2831 2832 1 
257 2581 2582 1 
258 3086 2562 3 
259 2583 2584 1 
260 3585 3586 1 
261 3322 3321 1 
262 3091 3092 1 
263 3589 3590 1 
264 3833 3834 1 
265 3825 3826 1 
266 3602 3832 3 
267 3832 3831 1 
268 4081 4082 1 
269 4072 3572 3 
270 3572 3571 1 
271 5061 5062 1 
272 5071 5072 1 
273 4573 4574 1 
274 4581 4582 1 
275 5081 5082 1 
276 5333 5334 1 
277 5561 5562 1 
278 5327 5328 1 
279 6083 6084 1 
280 6089 6090 1 
281 93 94 1 
282 823 824 1 
283 81 82 1 
284 563 564 1 
285 821 822 1 
286 1831 1832 1 
287 1341 1342 1 
288 1341 1831 2 
289 841 842 1 
290 847 848 1 
291 3085 3086 1 
292 2585 2586 1 
293 3073 3074 1 
294 2335 2336 1 
295 2851 2852 1 
296 3551 3552 1 
297 3601 3602 1 
298 3593 3594 1 
299 4071 4072 1 
300 4331 4332 1 
301 5087 5088 1 
302 5593 5594 1 
303 6103 6104 1 
304 6095 6096 1 
305 6085 6086 1 
306 331 332 1 
307 341 342 1 
308 107 108 1 
309 591 592 1 
310 831 832 1 
311 344 350 3 
312 596 1092 3 
313 1092 1091 1 
314 861 862 1 
315 1107 1108 1 
316 1601 1602 1 
317 1351 1352 1 
318 2091 2092 1 
319 2849 2850 1 
320 1835 1836 1 
321 1835 2115 2 
322 2115 2116 1 
323 2333 2334 1 
324 1857 1858 1 
325 2845 2846 1 
326 3351 3352 1 
327 2611 2612 1 
328 2841 2842 1 
329 2862 2861 1 
330 3083 3084 1 
331 3341 3342 1 
332 4091 4092 1 
333 3343 3344 1 
334 3853 3854 1 
335 3619 3620 1 
336 3851 3852 1 
337 4105 4106 1 
338 5345 5346 1 
339 5097 5098 1 
340 5591 5592 1 
341 5600 5622 3 
342 5622 5621 1 
343 101 102 1 
344 333 334 1 
345 5881 5882 1 
346 343 344 1 
347 1105 1106 1 
348 1103 1104 1 
349 621 622 1 
350 1353 1354 1 
351 1605 1606 1 
352 1847 1848 1 
353 2101 2102 1 
354 2864 2863 1 
355 2894 2864 3 
356 2893 2894 1 
357 3084 2862 3 
358 3365 3366 1 
359 4107 4108 1 
360 3849 3850 1 
361 4611 4612 1 
362 4621 4622 1 
363 4845 4846 1 
364 4845 5119 2 
365 5119 5120 1 
366 5861 5862 1 
367 5611 5612 1 
368 5115 5116 1 
369 5601 5602 1 
370 5637 5638 1 
371 5372 5371 1 
372 5375 5376 1 
373 5342 5372 3 
374 5351 5352 1 
375 6109 6110 1 
376 117 118 1 
377 877 878 1 
378 369 370 1 
379 369 635 2 
380 635 636 1 
381 619 620 1 
382 1127 1128 1 
383 633 634 1 
384 1113 1114 1 
385 1401 1402 1 
386 1121 1122 1 
387 1853 1854 1 
388 1615 1616 1 
389 1875 1876 1 
390 2131 2132 1 
391 2363 2364 1 
392 2875 2876 1 
393 2873 2874 1 
394 3123 3124 1 
395 2853 2854 1 
396 2619 2620 1 
397 2619 2853 2 
398 3125 3126 1 
399 3126 3634 3 
400 3883 3884 1 
401 3111 3112 1 
402 3375 3376 1 
403 3375 3883 2 
404 4121 4122 1 
405 3623 3624 1 
406 4591 4592 1 
407 4371 4372 1 
408 5361 5362 1 
409 5123 5124 1 
410 5623 5624 1 
411 5871 5872 1 
412 6121 6122 1 
413 141 142 1 
414 613 614 1 
415 653 654 1 
416 1136 1135 1 
417 1389 1390 1 
418 1133 1134 1 
419 1393 1394 1 
420 1131 1132 1 
421 1871 1872 1 
422 2373 2374 1 
423 2113 2114 1 
424 2111 2112 1 
425 2621 2622 1 
426 2381 2382 1 
427 2647 2648 1 
428 3143 3144 1 
429 3865 3866 1 
430 3641 3642 1 
431 4631 4632 1 
432 4111 4112 1 
433 4393 4394 1 
434 4393 5131 2 
435 5131 5132 1 
436 4897 4898 1 
437 4877 4878 1 
438 4629 4630 1 
439 5133 5134 1 
440 5127 5128 1 
441 5377 5378 1 
442 5395 5396 1 
443 5395 5631 2 
444 5631 5632 1 
445 5633 5634 1 
446 6141 6142 1 
447 151 152 1 
448 6169 6170 1 
449 641 642 1 
450 143 144 1 
451 647 648 1 
452 397 398 1 
453 1623 1624 1 
454 1143 1144 1 
455 1643 1644 1 
456 1375 1376 1 
457 2141 2142 1 
458 1881 1882 1 
459 1381 1382 1 
460 2173 2174 1 
461 2147 2148 1 
462 2127 2128 1 
463 2625 2626 1 
464 3643 3644 1 
465 3667 3668 1 
466 3901 3902 1 
467 3621 3622 1 
468 2865 2866 1 
469 3377 3378 1 
470 4395 4396 1 
471 4143 4144 1 
472 4923 4924 1 
473 5151 5152 1 
474 5373 5374 1 
475 5635 5636 1 
476 5655 5656 1 
477 5625 5626 1 
478 5883 5884 1 
479 6153 6154 1 
480 378 377 1 
481 111 112 1 
482 112 378 3 
483 121 122 1 
484 132 902 3 
485 902 901 1 
486 1151 1152 1 
487 1883 1884 1 
488 1653 1654 1 
489 2151 2152 1 
490 1901 1902 1 
491 1893 1894 1 
492 2393 2394 1 
493 2871 2872 1 
494 2871 2907 2 
495 2907 2908 1 
496 3151 3152 1 
497 3161 3162 1 
498 3391 3392 1 
499 2905 2906 1 
500 3153 3154 1 
501 4141 4142 1 
502 3665 3666 1 
503 4133 4134 1 
504 4167 4168 1 
505 3923 3924 1 
506 4135 4136 1 
507 4641 4642 1 
508 4673 4674 1 
509 4661 4662 1 
510 3893 3894 1 
511 4643 4644 1 
512 4884 4883 1 
513 5374 4884 3 
514 5641 5642 1 
515 5171 5172 1 
516 6167 6168 1 
517 5391 5392 1 
518 6161 6162 1 
519 6151 6152 1 
520 421 422 1 
521 5901 5902 1 
522 415 416 1 
523 415 421 2 
524 891 892 1 
525 665 666 1 
526 6175 6176 1 
527 651 652 1 
528 1165 1166 1 
529 1161 1162 1 
530 1413 1414 1 
531 1921 1922 1 
532 1911 1912 1 
533 1671 1672 1 
534 2413 2414 1 
535 1903 1904 1 
536 1923 1924 1 
537 2671 2672 1 
538 2655 2656 1 
539 2663 2664 1 
540 2933 2934 1 
541 3152 2654 3 
542 2654 2653 1 
543 3666 3164 3 
544 3164 3163 1 
545 3411 3412 1 
546 3395 3396 1 
547 4421 4422 1 
548 4155 4156 1 
549 4937 4938 1 
550 4428 4427 1 
551 4674 4428 3 
552 4663 4664 1 
553 4415 4416 1 
554 4911 4912 1 
555 5155 5156 1 
556 5403 5404 1 
557 5429 5430 1 
558 5411 5412 1 
559 5431 5432 1 
560 5661 5662 1 
561 429 430 1 
562 185 186 1 
563 913 914 1 
564 1691 1692 1 
565 925 926 1 
566 1913 1914 1 
567 1155 1156 1 
568 1441 1442 1 
569 2411 2412 1 
570 2183 2184 1 
571 2901 2902 1 
572 3673 3674 1 
573 4175 4176 1 
574 3201 3202 1 
575 3401 3402 1 
576 3681 3682 1 
577 4157 4158 1 
578 3693 3694 1 
579 3675 3676 1 
580 3413 3414 1 
581 4153 4154 1 
582 4691 4692 1 
583 4173 4174 1 
584 4423 4424 1 
585 3915 3916 1 
586 5186 5185 1 
587 5683 5684 1 
588 5174 5186 3 
589 5675 5676 1 
590 5673 5674 1 
591 5444 5956 3 
592 5956 5955 1 
593 205 206 1 
594 6203 6204 1 
595 173 174 1 
596 6163 6164 1 
597 6177 6178 1 
598 6192 6191 1 
599 432 6192 3 
600 445 446 1 
601 673 674 1 
602 701 702 1 
603 459 460 1 
604 671 672 1 
605 935 936 1 
606 691 692 1 
607 1171 1172 1 
608 1411 1412 1 
609 1681 1682 1 
610 2171 2172 1 
611 1663 1664 1 
612 2437 2438 1 
613 1949 1950 1 
614 2691 2692 1 
615 2925 2926 1 
616 3171 3172 1 
617 3193 3194 1 
618 3431 3432 1 
619 3187 3188 1 
620 3203 3204 1 
621 3203 4175 2 
622 3421 3422 1 
623 3671 3672 1 
624 3931 3932 1 
625 4945 4946 1 
626 4431 4432 1 
627 4683 4684 1 
628 5173 5174 1 
629 5447 5448 1 
630 5674 5936 3 
631 5415 5416 1 
632 5936 5935 1 
633 5207 5208 1 
634 5443 5444 1 
635 5931 5932 1 
636 5967 5968 1 
637 5967 6173 2 
638 5933 5934 1 
639 441 442 1 
640 5691 5692 1 
641 213 214 1 
642 951 952 1 
643 681 682 1 
644 221 222 1 
645 451 452 1 
646 471 472 1 
647 471 661 2 
648 1197 1198 1 
649 1421 1422 1 
650 1199 1200 1 
651 1933 1934 1 
652 1941 1942 1 
653 1697 1698 1 
654 2207 2208 1 
655 2451 2452 1 
656 2703 2704 1 
657 3221 3222 1 
658 3475 3476 1 
659 4445 4446 1 
660 4681 4682 1 
661 4701 4702 1 
662 4437 4438 1 
663 4935 4936 1 
664 4961 4962 1 
665 5191 5192 1 
666 4469 4470 1 
667 5951 5952 1 
668 5463 5464 1 
669 5463 5937 2 
670 5205 5206 1 
671 5937 5938 1 
672 5693 5694 1 
673 203 204 1 
674 209 210 1 
675 461 462 1 
676 6195 6196 1 
677 971 972 1 
678 191 192 1 
679 224 662 3 
680 662 661 1 
681 223 224 1 
682 1479 1480 1 
683 211 212 1 
684 1225 1226 1 
685 1467 1468 1 
686 1951 1952 1 
687 1203 1204 1 
688 1943 1944 1 
689 2727 2728 1 
690 3461 3462 1 
691 3473 3474 1 
692 3975 3976 1 
693 3961 3962 1 
694 3973 3974 1 
695 4439 4440 1 
696 3971 3972 1 
697 4963 4964 1 
698 4205 4206 1 
699 4204 4203 1 
700 3972 4204 3 
701 4951 4952 1 
702 4965 4966 1 
703 5473 5474 1 
704 5721 5722 1 
705 5953 5954 1 
706 6221 6222 1 
707 5965 5966 1 
708 481 482 1 
709 227 228 1 
710 6213 6214 1 
711 475 476 1 
712 463 464 1 
713 463 971 2 
714 483 484 1 
715 1201 1202 1 
716 713 714 1 
717 713 1201 2 
718 1227 1228 1 
719 1475 1476 1 
720 1451 1452 1 
721 1221 1222 1 
722 1483 1484 1 
723 1211 1212 1 
724 1211 1221 2 
725 1713 1714 1 
726 1973 1974 1 
727 1735 1736 1 
728 2233 2234 1 
729 1961 1962 1 
730 2737 2738 1 
731 2973 2974 1 
732 3463 3464 1 
733 3963 3964 1 
734 3225 3226 1 
735 3225 3963 2 
736 4463 4464 1 
737 4221 4222 1 
738 4471 4472 1 
739 3951 3952 1 
740 3993 3994 1 
741 3695 3696 1 
742 4969 4970 1 
743 5215 5216 1 
744 4479 4480 1 
745 4483 4484 1 
746 4725 4726 1 
747 5221 5222 1 
748 4973 4974 1 
749 5223 5224 1 
750 5225 5226 1 
751 5485 5486 1 
752 5485 5721 2 
753 5703 5704 1 
754 5233 5234 1 
755 5733 5734 1 
756 5961 5962 1 
757 6233 6234 1 
758 975 976 1 
759 1003 1004 1 
760 473 474 1 
761 751 752 1 
762 1461 1462 1 
763 1993 1994 1 
764 1981 1982 1 
765 1491 1492 1 
766 1991 1992 1 
767 1983 1984 1 
768 2245 2246 1 
769 2243 2244 1 
770 1741 1742 1 
771 1741 2243 2 
772 2743 2744 1 
773 3209 3210 1 
774 2475 2476 1 
775 3483 3484 1 
776 3483 3741 2 
777 3741 3742 1 
778 4251 4252 1 
779 4251 4711 2 
780 4711 4712 1 
781 4735 4736 1 
782 4991 4992 1 
783 4721 4722 1 
784 6245 6246 1 
785 5723 5724 1 
786 5731 5732 1 
787 479 480 1 
788 235 236 1 
789 253 254 1 
790 257 258 1 
791 5993 5994 1 
792 733 734 1 
793 487 488 1 
794 485 486 1 
795 741 742 1 
796 983 984 1 
797 1005 1006 1 
798 1263 1264 1 
799 997 998 1 
800 1001 1002 1 
801 1755 1756 1 
802 1233 1234 1 
803 1271 1272 1 
804 1485 1486 1 
805 2241 2242 1 
806 2961 2962 1 
807 1503 1504 1 
808 2471 2472 1 
809 2251 2252 1 
810 2251 2489 2 
811 2489 2490 1 
812 2975 2976 1 
813 3491 3492 1 
814 3989 3990 1 
815 3757 3758 1 
816 3243 3244 1 
817 4491 4492 1 
818 3721 3722 1 
819 4231 4232 1 
820 4241 4242 1 
821 3731 3732 1 
822 4223 4224 1 
823 4501 4502 1 
824 4741 4742 1 
825 4493 4494 1 
826 4999 5000 1 
827 5471 5472 1 
828 5481 5482 1 
829 5742 5256 3 
830 6223 6224 1 
831 5983 5984 1 
832 5741 5742 1 
833 243 244 1 
834 6010 6242 3 
835 6242 6241 1 
836 247 248 1 
837 249 250 1 
838 763 764 1 
839 6017 6018 1 
840 17 18 1 
841 1275 1276 1 
842 1499 1500 1 
843 1029 1030 1 
844 1013 1014 1 
845 1261 1262 1 
846 755 756 1 
847 2005 2006 1 
848 1273 1274 1 
849 1509 1510 1 
850 2015 2016 1 
851 1785 1786 1 
852 2255 2256 1 
853 2273 2274 1 
854 1995 1996 1 
855 2004 1514 3 
856 2004 2003 1 
857 2491 2492 1 
858 1757 1758 1 
859 2499 2500 1 
860 1751 1752 1 
861 1751 2769 2 
862 2481 2482 1 
863 2981 2982 1 
864 2247 2248 1 
865 2777 2778 1 
866 2504 2740 3 
867 3277 3278 1 
868 3013 3014 1 
869 3985 3986 1 
870 3509 3510 1 
871 3755 3756 1 
872 3767 3768 1 
873 3253 3254 1 
874 4237 4238 1 
875 3501 3502 1 
876 3765 3766 1 
877 3505 3506 1 
878 3766 4744 3 
879 3769 3770 1 
880 3771 3772 1 
881 4744 4743 1 
882 4245 4246 1 
883 4253 4254 1 
884 5503 5504 1 
885 4751 4752 1 
886 4761 4762 1 
887 4506 4505 1 
888 5258 4506 3 
889 5007 5008 1 
890 4995 4996 1 
891 4995 5007 2 
892 6003 6004 1 
893 5515 5516 1 
894 5259 5260 1 
895 5511 5512 1 
896 5987 5988 1 
897 5499 5500 1 
898 507 508 1 
899 239 240 1 
900 6019 6020 1 
901 6021 6022 1 
902 23 24 1 
903 45 46 1 
904 3 4 1 
905 3 747 2 
906 747 748 1 
907 771 772 1 
908 297 298 1 
909 1018 1017 1 
910 1251 1252 1 
911 1274 1018 3 
912 1255 1256 1 
913 2019 2020 1 
914 757 758 1 
915 1027 1028 1 
916 1743 1744 1 
917 2763 2764 1 
918 1769 1770 1 
919 1269 1270 1 
920 1765 1766 1 
921 2495 2496 1 
922 2271 2272 1 
923 2769 2770 1 
924 1519 1520 1 
925 2285 2286 1 
926 3251 3252 1 
927 2759 2760 1 
928 2759 3251 2 
929 2771 2772 1 
930 2517 2518 1 
931 2779 2780 1 
932 2521 2522 1 
933 3267 3268 1 
934 3787 3788 1 
935 4026 3746 3 
936 3513 3514 1 
937 3269 3270 1 
938 3003 3004 1 
939 3015 3016 1 
940 3746 3745 1 
941 3527 3528 1 
942 4047 4048 1 
943 4263 4264 1 
944 4272 4266 3 
945 4266 4265 1 
946 4275 4276 1 
947 4515 4516 1 
948 4521 4522 1 
949 5001 5002 1 
950 5789 5790 1 
951 5025 5026 1 
952 5263 5264 1 
953 4777 4778 1 
954 4773 4774 1 
955 5029 5030 1 
956 5021 5022 1 
957 5280 5279 1 
958 5008 5280 3 
959 5761 5762 1 
960 5521 5522 1 
961 5285 5286 1 
962 5749 5750 1 
963 5757 5758 1 
964 5763 5764 1 
965 11 12 1 
966 255 256 1 
967 13 14 1 
968 37 38 1 
969 261 262 1 
970 261 531 2 
971 531 532 1 
972 5753 5754 1 
973 285 286 1 
974 267 268 1 
975 785 786 1 
976 767 768 1 
977 525 526 1 
978 793 794 1 
979 777 778 1 
980 1511 1512 1 
981 779 780 1 
982 1527 1528 1 
983 2041 2042 1 
984 1031 1032 1 
985 1533 1534 1 
986 2049 2050 1 
987 2031 2032 1 
988 2027 2028 1 
989 1753 1754 1 
990 2023 2024 1 
991 1783 1784 1 
992 2295 2296 1 
993 3005 3006 1 
994 2529 2530 1 
995 2519 2520 1 
996 2299 2300 1 
997 2263 2264 1 
998 3021 3022 1 
999 2768 2792 3 
1000 2790 2789 1 
1001 3026 3546 3 
1002 3026 3025 1 
1003 3524 2790 3 
1004 2792 2791 1 
1005 2798 3026 3 
1006 2798 2797 1 
1007 3546 2798 3 
1008 3546 3545 1 
1009 3279 3280 1 
1010 3047 3048 1 
1011 3263 3264 1 
1012 3523 3524 1 
1013 3289 3290 1 
1014 3779 3780 1 
1015 3531 3532 1 
1016 4025 4026 1 
1017 3535 3536 1 
1018 4285 4286 1 
1019 4523 4524 1 
1020 3789 3790 1 
1021 4031 4032 1 
1022 4793 4794 1 
1023 3797 3798 1 
1024 4533 4534 1 
1025 4041 4042 1 
1026 4277 4278 1 
1027 5035 5036 1 
1028 4547 4548 1 
1029 5023 5024 1 
1030 4763 4764 1 
1031 4763 5023 2 
1032 4525 4526 1 
1033 4783 4784 1 
1034 5277 5278 1 
1035 5011 5012 1 
1036 5033 5034 1 
1037 5283 5284 1 
1038 4511 4512 1 
1039 4781 4782 1 
1040 5275 5276 1 
1041 5776 5775 1 
1042 5286 5776 3 
1043 5261 5262 1 
1044 5309 5310 1 
1045 5797 5798 1 
1046 6031 6032 1 
1047 5759 5760 1 
1048 5773 5774 1 
1049 33 34 1 
1050 6033 6034 1 
1051 6029 6030 1 
1052 5787 5788 1 
1053 5787 6045 2 
1054 6045 6046 1 
1055 293 294 1 
1056 49 50 1 
1057 547 548 1 
1058 275 276 1 
1059 517 518 1 
1060 47 48 1 
1061 47 517 2 
1062 281 282 1 
1063 795 796 1 
1064 1307 1308 1 
1065 1041 1042 1 
1066 1309 1310 1 
1067 1289 1290 1 
1068 1063 1064 1 
1069 1295 1296 1 
1070 1795 1796 1 
1071 1555 1556 1 
1072 1285 1286 1 
1073 1801 1802 1 
1074 1291 1292 1 
1075 2055 2056 1 
1076 1797 1798 1 
1077 2317 2318 1 
1078 2035 2036 1 
1079 2045 2046 1 
1080 2313 2314 1 
1081 2297 2298 1 
1082 3019 3020 1 
1083 3537 3538 1 
1084 3291 3292 1 
1085 3031 3032 1 
1086 3783 3784 1 
1087 3547 3548 1 
1088 2783 2784 1 
1089 3281 3282 1 
1090 3521 3522 1 
1091 3311 3312 1 
1092 3311 3547 2 
1093 2787 2788 1 
1094 4035 4036 1 
1095 4027 4028 1 
1096 3781 3782 1 
1097 3555 3556 1 
1098 3555 3781 2 
1099 3775 3776 1 
1100 4039 4040 1 
1101 4051 4052 1 
1102 4029 4030 1 
1103 4299 4300 1 
1104 4539 4540 1 
1105 4535 4536 1 
1106 4287 4288 1 
1107 4291 4292 1 
1108 4295 4296 1 
1109 4293 4294 1 
1110 4789 4790 1 
1111 4549 4550 1 
1112 4809 4810 1 
1113 4550 4532 3 
1114 5037 5038 1 
1115 4775 4776 1 
1116 4803 4804 1 
1117 5305 5306 1 
1118 5043 5044 1 
1119 5043 5317 2 
1120 5549 5550 1 
1121 5293 5294 1 
1122 5317 5318 1 
1123 5570 5569 1 
1124 5310 5570 3 
1125 5551 5552 1 
1126 5535 5536 1 
1127 5791 5792 1 
1128 5799 5800 1 
1129 6047 6048 1 
1130 65 66 1 
1131 53 54 1 
1132 67 68 1 
1133 301 302 1 
1134 797 798 1 
1135 545 546 1 
1136 775 776 1 
1137 1067 1068 1 
1138 796 800 3 
1139 800 799 1 
1140 801 802 1 
1141 805 806 1 
1142 1570 1554 3 
1143 1554 1553 1 
1144 1315 1316 1 
1145 1791 1792 1 
1146 1059 1060 1 
1147 2053 2054 1 
1148 1823 1824 1 
1149 2061 2062 1 
1150 2587 2588 1 
1151 2059 2060 1 
1152 2059 2287 2 
1153 2287 2288 1 
1154 2277 2278 1 
1155 2301 2302 1 
1156 3043 3044 1 
1157 2793 2794 1 
1158 2553 2554 1 
1159 2065 2066 1 
1160 3299 3300 1 
1161 3049 3050 1 
1162 2327 2328 1 
1163 3069 3070 1 
1164 3057 3058 1 
1165 2803 2804 1 
1166 3297 3298 1 
1167 4061 4062 1 
1168 3319 3320 1 
1169 3559 3560 1 
1170 3791 3792 1 
1171 3553 3554 1 
1172 3541 3542 1 
1173 3541 3791 2 
1174 3053 3054 1 
1175 3053 3559 2 
1176 3803 3804 1 
1177 3793 3794 1 
1178 4317 4318 1 
1179 2795 2796 1 
1180 3785 3786 1 
1181 4085 4086 1 
1182 4305 4306 1 
1183 4811 4812 1 
1184 4541 4542 1 
1185 4817 4818 1 
1186 4537 4538 1 
1187 5311 5312 1 
1188 5057 5058 1 
1189 5314 5313 1 
1190 5581 5582 1 
1191 5040 5314 3 
1192 5555 5556 1 
1193 5319 5320 1 
1194 5781 5782 1 
1195 5793 5794 1 
1196 6067 6068 1 
1197 5813 5814 1 
1198 5803 5804 1 
1199 6065 6066 1 
1200 75 76 1 
1201 69 70 1 
1202 329 330 1 
1203 307 308 1 
1204 6075 6076 1 
1205 299 300 1 
1206 83 84 1 
1207 83 307 2 
1208 543 544 1 
1209 559 560 1 
1210 555 556 1 
1211 567 568 1 
1212 41 42 1 
1213 1065 1066 1 
1214 827 828 1 
1215 1311 1312 1 
1216 1561 1562 1 
1217 1551 1552 1 
1218 1829 1830 1 
1219 1815 1816 1 
1220 1815 1829 2 
1221 1813 1814 1 
1222 1793 1794 1 
1223 1827 1828 1 
1224 1825 1826 1 
1225 2817 2818 1 
1226 2543 2544 1 
1227 2051 2052 1 
1228 2563 2564 1 
1229 2563 2817 2 
1230 2569 2570 1 
1231 2811 2812 1 
1232 2573 2574 1 
1233 2805 2806 1 
1234 3317 3318 1 
1235 2821 2822 1 
1236 2821 3317 2 
1237 3067 3068 1 
1238 3305 3306 1 
1239 4065 4066 1 
1240 4075 4076 1 
1241 4059 4060 1 
1242 4058 4057 1 
1243 3568 4058 3 
1244 3815 3816 1 
1245 3823 3824 1 
1246 3811 3812 1 
1247 4319 4320 1 
1248 4053 4054 1 
1249 4069 4070 1 
1250 4077 4078 1 
1251 4079 4080 1 
1252 4587 4588 1 
1253 5049 5050 1 
1254 4567 4568 1 
1255 5069 5070 1 
1256 4823 4824 1 
1257 4561 4562 1 
1258 4559 4560 1 
1259 4559 4561 2 
1260 4797 4798 1 
1261 5055 5056 1 
1262 5303 5304 1 
1263 5039 5040 1 
1264 4583 4584 1 
1265 5553 5554 1 
1266 5059 5060 1 
1267 5329 5330 1 
1268 5041 5042 1 
1269 5041 5785 2 
1270 5565 5566 1 
1271 6063 6064 1 
1272 5321 5322 1 
1273 5825 5826 1 
1274 5821 5822 1 
1275 43 44 1 
1276 5814 5302 3 
1277 5302 5301 1 
1278 6027 6028 1 
1279 303 304 1 
1280 327 328 1 
1281 57 58 1 
1282 819 820 1 
1283 571 572 1 
1284 71 72 1 
1285 1331 1332 1 
1286 813 814 1 
1287 826 1076 3 
1288 1076 1075 1 
1289 1087 1088 1 
1290 825 826 1 
1291 1559 1560 1 
1292 1093 1094 1 
1293 1293 1294 1 
1294 1069 1070 1 
1295 1565 1566 1 
1296 1335 1336 1 
1297 1579 1580 1 
1298 2085 2086 1 
1299 2555 2556 1 
1300 2353 2354 1 
1301 2291 2292 1 
1302 2291 2353 2 
1303 2319 2320 1 
1304 1845 1846 1 
1305 2815 2816 1 
1306 2593 2594 1 
1307 2063 2064 1 
1308 2315 2316 1 
1309 2071 2072 1 
1310 2559 2560 1 
1311 2323 2324 1 
1312 2575 2576 1 
1313 2837 2838 1 
1314 3037 3038 1 
1315 3095 3096 1 
1316 2835 2836 1 
1317 2813 2814 1 
1318 2567 2568 1 
1319 2562 2561 1 
1320 2839 2840 1 
1321 2839 3329 2 
1322 3061 3062 1 
1323 3329 3330 1 
1324 3075 3076 1 
1325 3563 3564 1 
1326 3331 3332 1 
1327 3567 3568 1 
1328 3599 3600 1 
1329 3801 3802 1 
1330 3583 3584 1 
1331 3583 3599 2 
1332 3835 3836 1 
1333 3597 3598 1 
1334 4605 4606 1 
1335 4565 4566 1 
1336 4827 4828 1 
1337 5307 5308 1 
1338 4577 4578 1 
1339 4335 4336 1 
1340 4575 4576 1 
1341 4563 4564 1 
1342 5065 5066 1 
1343 4835 4836 1 
1344 4825 4826 1 
1345 4829 4830 1 
1346 4799 4800 1 
1347 5325 5326 1 
1348 5571 5572 1 
1349 6087 6088 1 
1350 5579 5580 1 
1351 6081 6082 1 
1352 73 74 1 
1353 5827 5828 1 
1354 353 354 1 
1355 347 348 1 
1356 351 352 1 
1357 99 100 1 
1358 6093 6094 1 
1359 597 598 1 
1360 337 338 1 
1361 575 576 1 
1362 586 585 1 
1363 855 856 1 
1364 355 356 1 
1365 1337 1338 1 
1366 837 838 1 
1367 837 1093 2 
1368 595 596 1 
1369 1567 1568 1 
1370 833 834 1 
1371 829 830 1 
1372 1367 1368 1 
1373 1089 1090 1 
1374 1587 1588 1 
1375 1573 1574 1 
1376 1585 1586 1 
1377 1317 1318 1 
1378 1085 1086 1 
1379 853 854 1 
1380 853 1859 2 
1381 1859 1860 1 
1382 2073 2074 1 
1383 1809 1810 1 
1384 1839 1840 1 
1385 2107 2108 1 
1386 1819 1820 1 
1387 2599 2600 1 
1388 2089 2090 1 
1389 2343 2344 1 
1390 2087 2088 1 
1391 2592 2858 3 
1392 2858 2857 1 
1393 2349 2350 1 
1394 2828 2827 1 
1395 2843 2844 1 
1396 3604 2828 3 
1397 3093 3094 1 
1398 3813 3814 1 
1399 3607 3608 1 
1400 3607 3813 2 
1401 2834 3354 3 
1402 3354 3353 1 
1403 3063 3064 1 
1404 3089 3090 1 
1405 3087 3088 1 
1406 3323 3324 1 
1407 3077 3078 1 
1408 3077 3359 2 
1409 3605 3606 1 
1410 3337 3338 1 
1411 3359 3360 1 
1412 3863 3864 1 
1413 4311 4312 1 
1414 3579 3580 1 
1415 3579 3821 2 
1416 3821 3822 1 
1417 3333 3334 1 
1418 4321 4322 1 
1419 4321 4351 2 
1420 4351 4352 1 
1421 4328 4327 1 
1422 4343 4344 1 
1423 3828 4328 3 
1424 4323 4324 1 
1425 4849 4850 1 
1426 4569 4570 1 
1427 4821 4822 1 
1428 4833 4834 1 
1429 5093 5094 1 
1430 5085 5086 1 
1431 4831 4832 1 
1432 5079 5080 1 
1433 5575 5576 1 
1434 5349 5350 1 
1435 5101 5102 1 
1436 5077 5078 1 
1437 5605 5606 1 
1438 5357 5358 1 
1439 5587 5588 1 
1440 5831 5832 1 
1441 6099 6100 1 
1442 5585 5586 1 
1443 5585 5831 2 
1444 5323 5324 1 
1445 5105 5106 1 
1446 91 92 1 
1447 5859 5860 1 
1448 6079 6080 1 
1449 5597 5598 1 
1450 6073 6074 1 
1451 339 340 1 
1452 325 326 1 
1453 113 114 1 
1454 6117 6118 1 
1455 832 586 3 
1456 601 602 1 
1457 6105 6106 1 
1458 350 349 1 
1459 119 120 1 
1460 851 852 1 
1461 845 846 1 
1462 345 346 1 
1463 363 364 1 
1464 1583 1584 1 
1465 857 858 1 
1466 869 870 1 
1467 1111 1112 1 
1468 1581 1582 1 
1469 1593 1594 1 
1470 1081 1082 1 
1471 1851 1852 1 
1472 1591 1592 1 
1473 1343 1344 1 
1474 1325 1326 1 
1475 1607 1608 1 
1476 1811 1812 1 
1477 2577 2578 1 
1478 2367 2368 1 
1479 2105 2106 1 
1480 1843 1844 1 
1481 2615 2616 1 
1482 2109 2110 1 
1483 2345 2346 1 
1484 2321 2322 1 
1485 2321 2857 2 
1486 2357 2358 1 
1487 2618 2596 3 
1488 2596 2595 1 
1489 3603 3604 1 
1490 2829 2830 1 
1491 2833 2834 1 
1492 3335 3336 1 
1493 3346 3345 1 
1494 2589 2590 1 
1495 3595 3596 1 
1496 3336 3346 3 
1497 3101 3102 1 
1498 3841 3842 1 
1499 3843 3844 1 
1500 3857 3858 1 
1501 3837 3838 1 
1502 3611 3612 1 
1503 4369 4370 1 
1504 4101 4102 1 
1505 4087 4088 1 
1506 4083 4084 1 
1507 3875 3876 1 
1508 4337 4338 1 
1509 4093 4094 1 
1510 3845 3846 1 
1511 4603 4604 1 
1512 4345 4346 1 
1513 4585 4586 1 
1514 4853 4854 1 
1515 4843 4844 1 
1516 4875 4876 1 
1517 4839 4840 1 
1518 4593 4594 1 
1519 4623 4624 1 
1520 5091 5092 1 
1521 5613 5614 1 
1522 5855 5856 1 
1523 5833 5834 1 
1524 5833 5851 2 
1525 593 594 1 
1526 5841 5842 1 
1527 5856 6102 3 
1528 5851 5852 1 
1529 6102 6101 1 
1530 361 362 1 
1531 115 116 1 
1532 123 124 1 
1533 6125 6126 1 
1534 5863 5864 1 
1535 599 600 1 
1536 603 604 1 
1537 615 616 1 
1538 616 864 3 
1539 864 863 1 
1540 1637 1638 1 
1541 871 872 1 
1542 871 881 2 
1543 1101 1102 1 
1544 1101 1637 2 
1545 1347 1348 1 
1546 1597 1598 1 
1547 1361 1362 1 
1548 1369 1370 1 
1549 1115 1116 1 
1550 859 860 1 
1551 859 1369 2 
1552 1595 1596 1 
1553 2361 2362 1 
1554 1863 1864 1 
1555 1841 1842 1 
1556 1841 2103 2 
1557 2613 2614 1 
1558 2369 2370 1 
1559 2356 2355 1 
1560 2370 2356 3 
1561 3103 3104 1 
1562 2351 2352 1 
1563 2607 2608 1 
1564 2617 2618 1 
1565 3105 3106 1 
1566 3861 3862 1 
1567 4109 4110 1 
1568 4349 4350 1 
1569 4381 4382 1 
1570 4619 4620 1 
1571 3871 3872 1 
1572 4841 4842 1 
1573 4847 4848 1 
1574 4617 4618 1 
1575 5103 5104 1 
1576 4861 4862 1 
1577 4885 4886 1 
1578 5347 5348 1 
1579 5862 5874 3 
1580 5874 5873 1 
1581 5599 5600 1 
1582 105 106 1 
1583 5857 5858 1 
1584 5111 5112 1 
1585 6139 6140 1 
1586 5341 5342 1 
1587 389 390 1 
1588 379 380 1 
1589 611 612 1 
1590 625 626 1 
1591 875 876 1 
1592 1349 1350 1 
1593 365 366 1 
1594 629 630 1 
1595 1609 1610 1 
1596 879 880 1 
1597 882 881 1 
1598 1390 882 3 
1599 1865 1866 1 
1600 1633 1634 1 
1601 1611 1612 1 
1602 2123 2124 1 
1603 2133 2134 1 
1604 1873 1874 1 
1605 1861 1862 1 
1606 1625 1626 1 
1607 1373 1374 1 
1608 1869 1870 1 
1609 1363 1364 1 
1610 2371 2372 1 
1611 3131 3132 1 
1612 3373 3374 1 
1613 3634 3633 1 
1614 2645 2646 1 
1615 3363 3364 1 
1616 3636 3635 1 
1617 3369 3370 1 
1618 3609 3610 1 
1619 3379 3380 1 
1620 3625 3626 1 
1621 3383 3384 1 
1622 4103 4104 1 
1623 4115 4116 1 
1624 4113 4114 1 
1625 4127 4128 1 
1626 3869 3870 1 
1627 4363 4364 1 
1628 4359 4360 1 
1629 4385 4386 1 
1630 4379 4380 1 
1631 4615 4616 1 
1632 4871 4872 1 
1633 4625 4626 1 
1634 4367 4368 1 
1635 4851 4852 1 
1636 5355 5356 1 
1637 5353 5354 1 
1638 4881 4882 1 
1639 5880 5879 1 
1640 5869 5870 1 
1641 5371 6119 2 
1642 6119 6120 1 
1643 5865 5866 1 
1644 5645 5646 1 
1645 6145 6146 1 
1646 6133 6134 1 
1647 6131 6132 1 
1648 6144 5616 3 
1649 153 154 1 
1650 371 372 1 
1651 5616 5615 1 
1652 6127 6128 1 
1653 139 140 1 
1654 6113 6114 1 
1655 165 166 1 
1656 395 396 1 
1657 6147 6148 1 
1658 6123 6124 1 
1659 393 394 1 
1660 631 632 1 
1661 1371 1372 1 
1662 889 890 1 
1663 889 1371 2 
1664 1134 1136 3 
1665 1387 1388 1 
1666 1387 1609 2 
1667 627 628 1 
1668 1385 1386 1 
1669 1627 1628 1 
1670 1631 1632 1 
1671 2121 2122 1 
1672 2121 2375 2 
1673 1391 1392 1 
1674 2375 2376 1 
1675 1877 1878 1 
1676 1641 1642 1 
1677 1641 2395 2 
1678 2117 2118 1 
1679 2879 2880 1 
1680 2887 2888 1 
1681 3133 3134 1 
1682 2629 2630 1 
1683 2377 2378 1 
1684 2377 2629 2 
1685 2635 2636 1 
1686 3141 3142 1 
1687 2891 2892 1 
1688 3113 3114 1 
1689 2881 2882 1 
1690 2867 2868 1 
1691 3121 3122 1 
1692 2885 2886 1 
1693 2877 2878 1 
1694 3617 3618 1 
1695 3135 3136 1 
1696 3405 3406 1 
1697 3371 3372 1 
1698 3873 3874 1 
1699 3873 4363 2 
1700 3879 3880 1 
1701 4129 4130 1 
1702 4357 4358 1 
1703 4893 4894 1 
1704 4361 4362 1 
1705 4159 4160 1 
1706 4397 4398 1 
1707 4651 4652 1 
1708 4627 4628 1 
1709 4863 4864 1 
1710 4873 4874 1 
1711 5379 5380 1 
1712 4383 4384 1 
1713 5137 5138 1 
1714 5153 5154 1 
1715 4880 5880 3 
1716 4879 4880 1 
1717 5627 5628 1 
1718 5113 5114 1 
1719 5113 5627 2 
1720 5643 5644 1 
1721 6143 6144 1 
1722 129 130 1 
1723 407 408 1 
1724 374 373 1 
1725 166 374 3 
1726 5875 5876 1 
1727 623 624 1 
1728 883 884 1 
1729 905 906 1 
1730 1397 1398 1 
1731 1425 1426 1 
1732 1147 1148 1 
1733 1403 1404 1 
1734 1657 1658 1 
1735 1899 1900 1 
1736 1153 1154 1 
1737 895 896 1 
1738 2143 2144 1 
1739 1897 1898 1 
1740 1651 1652 1 
1741 2129 2130 1 
1742 1879 1880 1 
1743 1917 1918 1 
1744 2395 2396 1 
1745 1885 1886 1 
1746 2135 2136 1 
1747 3145 3146 1 
1748 2641 2642 1 
1749 2898 2897 1 
1750 2652 2898 3 