ITEM: TIMESTEP
38720
ITEM: NUMBER OF ENTRIES
6865
ITEM: BOX BOUNDS pp pp ff
0.0000000000000000e+00 7.2168784000000002e+01
0.0000000000000000e+00 7.2168784000000002e+01
0.0000000000000000e+00 1.2000000000000000e+01
ITEM: ENTRIES index c_1[1] c_1[2] c_1[3]
1 6001 6002 1 
2 6001 6009 2 
3 1239 1240 1 
4 485 1239 2 
5 6 5 1 
6 1240 6 3 
7 1525 1526 1 
8 1525 1765 2 
9 2536 2535 1 
10 2732 1504 3 
11 2732 2731 1 
12 2732 2762 3 
13 2762 1504 3 
14 2762 2761 1 
15 2252 2732 3 
16 2252 2251 1 
17 2252 2762 3 
18 2745 2746 1 
19 1995 2745 2 
20 3510 3010 3 
21 3510 3509 1 
22 3986 3510 3 
23 3986 3985 1 
24 3010 3986 3 
25 3010 3009 1 
26 3512 3526 3 
27 3526 3525 1 
28 3491 3492 1 
29 3503 3504 1 
30 3504 4022 3 
31 4286 4514 3 
32 4514 4513 1 
33 3539 3540 1 
34 4500 4276 3 
35 4500 4499 1 
36 4048 4500 3 
37 4048 4047 1 
38 4276 4048 3 
39 4276 4275 1 
40 4999 5237 2 
41 4509 4727 2 
42 4758 4724 3 
43 5981 6007 2 
44 5981 5982 1 
45 6241 6242 1 
46 257 6241 2 
47 257 258 1 
48 488 487 1 
49 525 526 1 
50 502 1022 3 
51 1021 1022 1 
52 535 1021 2 
53 1308 760 3 
54 1308 1307 1 
55 1002 536 3 
56 1002 1001 1 
57 2023 2293 2 
58 2961 2962 1 
59 2962 3256 3 
60 3256 3255 1 
61 2302 2512 3 
62 2512 2530 3 
63 2512 2522 3 
64 2532 2772 3 
65 2532 2531 1 
66 2511 2512 1 
67 2511 2767 2 
68 3271 3495 2 
69 3495 3496 1 
70 2784 2783 1 
71 3290 2784 3 
72 3534 3316 3 
73 3534 3533 1 
74 3316 2524 3 
75 3316 3315 1 
76 3316 3790 3 
77 2524 3534 3 
78 2524 2523 1 
79 2524 3790 3 
80 2783 3269 2 
81 3016 3798 3 
82 3016 3015 1 
83 4011 4012 1 
84 3812 3016 3 
85 3812 3811 1 
86 3798 3812 3 
87 3798 3797 1 
88 3015 3525 2 
89 3540 4524 3 
90 3771 3772 1 
91 3771 4723 2 
92 4037 4038 1 
93 5238 6246 3 
94 5238 5237 1 
95 4261 4267 2 
96 6246 4488 3 
97 6246 6245 1 
98 4488 5238 3 
99 4488 4487 1 
100 5033 5034 1 
101 5508 4994 3 
102 6017 6018 1 
103 23 24 1 
104 26 488 3 
105 522 521 1 
106 522 768 3 
107 296 786 3 
108 296 295 1 
109 786 518 3 
110 786 785 1 
111 760 1054 3 
112 760 759 1 
113 1054 1308 3 
114 1054 1053 1 
115 2024 2023 1 
116 1744 2024 3 
117 2314 2296 3 
118 2314 2313 1 
119 2296 1520 3 
120 2296 2295 1 
121 1520 2314 3 
122 1520 1519 1 
123 2530 2532 3 
124 2530 2529 1 
125 2772 2530 3 
126 2772 2771 1 
127 2522 2532 3 
128 2522 2772 3 
129 3496 3022 3 
130 3022 3021 1 
131 2781 3289 2 
132 4294 5524 3 
133 4294 4293 1 
134 4296 4294 3 
135 4296 4295 1 
136 5290 4754 3 
137 5290 5289 1 
138 4519 5031 2 
139 5524 4296 3 
140 5524 5523 1 
141 4293 4557 2 
142 5277 5278 1 
143 5277 5283 2 
144 5283 5284 1 
145 5261 5987 2 
146 5987 5988 1 
147 6030 5540 3 
148 6030 6029 1 
149 542 6030 3 
150 542 541 1 
151 5540 542 3 
152 5540 5539 1 
153 5540 5780 3 
154 5780 542 3 
155 5780 5779 1 
156 5780 6030 3 
157 5765 6013 2 
158 255 256 1 
159 554 546 3 
160 554 553 1 
161 47 48 1 
162 47 517 2 
163 545 553 2 
164 540 1044 3 
165 540 539 1 
166 1048 540 3 
167 1048 1047 1 
168 1044 1048 3 
169 1044 1043 1 
170 295 815 2 
171 815 816 1 
172 1539 1791 2 
173 1333 2307 2 
174 1281 1541 2 
175 1782 1781 1 
176 1321 1322 1 
177 1321 2545 2 
178 2776 2044 3 
179 2776 2775 1 
180 2044 2564 3 
181 2044 2043 1 
182 2564 2776 3 
183 2564 2563 1 
184 1796 2564 3 
185 1796 1795 1 
186 1796 2776 3 
187 1796 2044 3 
188 2545 2546 1 
189 2563 2817 2 
190 2817 2818 1 
191 2313 2775 2 
192 3291 3299 2 
193 3031 3309 2 
194 3309 3310 1 
195 3070 3796 3 
196 3070 3294 3 
197 3578 2782 3 
198 3560 4062 3 
199 3560 3578 3 
200 2782 2781 1 
201 2782 3070 3 
202 2782 3560 3 
203 3283 3319 2 
204 3320 3319 1 
205 4051 4052 1 
206 4034 4033 1 
207 4040 3320 3 
208 3804 3803 1 
209 4052 3804 3 
210 4567 5331 2 
211 4567 4568 1 
212 5032 5054 3 
213 5032 5031 1 
214 4558 5032 3 
215 4558 4557 1 
216 4558 5054 3 
217 4558 5254 3 
218 5254 5032 3 
219 5254 5253 1 
220 4804 5296 3 
221 5296 5295 1 
222 6044 538 3 
223 6044 6043 1 
224 538 322 3 
225 538 537 1 
226 322 6044 3 
227 322 321 1 
228 546 792 3 
229 546 545 1 
230 792 554 3 
231 792 791 1 
232 798 70 3 
233 798 797 1 
234 2308 1290 3 
235 2308 2307 1 
236 534 533 1 
237 1792 2308 3 
238 1792 1791 1 
239 1302 1540 3 
240 1302 1301 1 
241 1572 1302 3 
242 1572 1571 1 
243 1571 1781 2 
244 1540 1572 3 
245 1540 1539 1 
246 1561 1562 1 
247 2332 1334 3 
248 2332 2331 1 
249 1822 1782 3 
250 1795 2053 2 
251 1334 2054 3 
252 1334 1333 1 
253 1800 2292 3 
254 1800 1799 1 
255 1800 2022 3 
256 2022 1824 3 
257 2022 2021 1 
258 2022 2292 3 
259 1824 1800 3 
260 1824 1823 1 
261 2292 1824 3 
262 2292 2291 1 
263 2328 1828 3 
264 2328 2327 1 
265 3310 3292 3 
266 3292 3291 1 
267 3048 3548 3 
268 3048 3047 1 
269 3548 3284 3 
270 3548 3547 1 
271 3803 4051 2 
272 3807 3808 1 
273 3574 4066 3 
274 3574 3573 1 
275 3558 4066 3 
276 3558 3557 1 
277 3558 3574 3 
278 3306 3558 3 
279 3306 3305 1 
280 3306 3574 3 
281 4066 3306 3 
282 4066 4065 1 
283 4059 4065 2 
284 4085 4086 1 
285 4291 4292 1 
286 4291 4587 2 
287 3331 3567 2 
288 4305 4306 1 
289 4060 4302 3 
290 4060 4059 1 
291 4302 5292 3 
292 4302 4301 1 
293 4053 4305 2 
294 3568 4058 3 
295 4058 4057 1 
296 5292 4060 3 
297 5292 5291 1 
298 4063 4064 1 
299 4568 4768 3 
300 4768 4767 1 
301 4767 4783 2 
302 6062 64 3 
303 64 63 1 
304 5823 5824 1 
305 63 5557 2 
306 5775 5823 2 
307 523 524 1 
308 5805 6043 2 
309 75 6093 2 
310 6081 6082 1 
311 59 6055 2 
312 95 96 1 
313 95 6081 2 
314 307 308 1 
315 83 307 2 
316 96 1324 3 
317 71 72 1 
318 71 799 2 
319 313 559 2 
320 1301 1569 2 
321 1562 1798 3 
322 827 1095 2 
323 1797 2021 2 
324 2852 2108 3 
325 2852 2851 1 
326 2108 1840 3 
327 2108 2107 1 
328 1840 2852 3 
329 1840 1839 1 
330 2828 3604 3 
331 2828 2827 1 
332 3044 2828 3 
333 3044 3043 1 
334 2035 2036 1 
335 3066 3794 3 
336 3066 3065 1 
337 3066 3344 3 
338 3305 3581 2 
339 4816 4310 3 
340 4310 4309 1 
341 4309 4543 2 
342 5060 5050 3 
343 5043 5317 2 
344 73 74 1 
345 5317 5318 1 
346 6061 6062 1 
347 5825 5826 1 
348 5825 6063 2 
349 6080 6079 1 
350 5821 5822 1 
351 544 6080 3 
352 300 76 3 
353 300 299 1 
354 300 324 3 
355 324 76 3 
356 324 323 1 
357 324 562 3 
358 76 562 3 
359 76 75 1 
360 562 300 3 
361 562 561 1 
362 6096 6076 3 
363 6055 6056 1 
364 316 336 3 
365 316 315 1 
366 336 822 3 
367 336 335 1 
368 822 316 3 
369 822 821 1 
370 1367 1368 1 
371 2045 2046 1 
372 2045 3043 2 
373 2806 2568 3 
374 2568 2567 1 
375 3604 3044 3 
376 3604 3603 1 
377 3073 2843 2 
378 3297 3619 2 
379 3344 3794 3 
380 3344 3343 1 
381 3318 3066 3 
382 3318 3317 1 
383 3318 3344 3 
384 3794 3318 3 
385 3794 3793 1 
386 3848 3847 1 
387 3324 3848 3 
388 3586 3072 3 
389 3586 3585 1 
390 3072 3552 3 
391 3072 3071 1 
392 3072 3562 3 
393 3562 3586 3 
394 3562 3561 1 
395 3552 3586 3 
396 3552 3551 1 
397 3552 3562 3 
398 4073 4074 1 
399 3801 4071 2 
400 5061 5062 1 
401 5059 5060 1 
402 4535 4577 2 
403 5069 5070 1 
404 5081 5333 2 
405 5052 5051 1 
406 91 5327 2 
407 5090 5052 3 
408 5089 5090 1 
409 6027 6028 1 
410 6027 6079 2 
411 315 6057 2 
412 1091 1103 2 
413 843 844 1 
414 841 843 2 
415 834 833 1 
416 2077 2078 1 
417 1344 834 3 
418 847 848 1 
419 847 2077 2 
420 2063 2064 1 
421 2599 2600 1 
422 3037 3095 2 
423 1599 2831 2 
424 2805 2806 1 
425 3081 3082 1 
426 3354 3353 1 
427 3092 3606 3 
428 3092 3091 1 
429 3864 3092 3 
430 3864 3863 1 
431 3606 3864 3 
432 3606 3605 1 
433 4604 4603 1 
434 4355 4603 2 
435 5346 4604 3 
436 5345 5346 1 
437 5348 5102 3 
438 5348 5347 1 
439 4836 5078 3 
440 4836 4835 1 
441 4836 5334 3 
442 5094 5348 3 
443 5094 5093 1 
444 5334 5098 3 
445 5334 5333 1 
446 5078 5098 3 
447 5078 5077 1 
448 5078 5334 3 
449 5102 5094 3 
450 5102 5101 1 
451 5051 5573 2 
452 5573 5574 1 
453 5098 4836 3 
454 5098 5097 1 
455 4339 4340 1 
456 6103 6104 1 
457 5801 5802 1 
458 5801 6103 2 
459 115 857 2 
460 861 1347 2 
461 1090 1086 3 
462 1090 1089 1 
463 1086 1328 3 
464 1086 1085 1 
465 1328 1090 3 
466 1328 1327 1 
467 812 1114 3 
468 812 811 1 
469 1113 1573 2 
470 1114 1338 3 
471 1114 1113 1 
472 1338 812 3 
473 1338 1337 1 
474 1338 1634 3 
475 1573 1574 1 
476 2131 2132 1 
477 2131 2135 2 
478 2611 2612 1 
479 2611 3083 2 
480 2352 2351 1 
481 2834 3354 3 
482 4337 4338 1 
483 3591 3592 1 
484 3111 3112 1 
485 3111 3591 2 
486 3091 3335 2 
487 3593 3863 2 
488 4609 4610 1 
489 3833 3834 1 
490 3833 4571 2 
491 5079 5345 2 
492 5562 4876 3 
493 5562 5561 1 
494 4876 5080 3 
495 4876 4875 1 
496 4595 5093 2 
497 5080 5562 3 
498 5080 5079 1 
499 4599 4600 1 
500 4599 4875 2 
501 5135 5136 1 
502 5135 5347 2 
503 4826 4582 3 
504 4825 4826 1 
505 43 44 1 
506 77 78 1 
507 5866 6074 3 
508 5866 5865 1 
509 6074 348 3 
510 6074 6073 1 
511 628 1148 3 
512 1350 858 3 
513 1350 1349 1 
514 1355 1356 1 
515 876 1350 3 
516 876 875 1 
517 1148 1147 1 
518 858 876 3 
519 858 857 1 
520 627 628 1 
521 1597 1619 2 
522 595 1107 2 
523 2361 2362 1 
524 2136 2092 3 
525 2136 2135 1 
526 2826 2862 3 
527 2826 2825 1 
528 2862 3084 3 
529 2862 2861 1 
530 3084 2826 3 
531 3084 3083 1 
532 2619 2620 1 
533 2619 2853 2 
534 2363 2861 2 
535 2364 2864 3 
536 2364 2363 1 
537 2364 2894 3 
538 2894 2342 3 
539 2894 2893 1 
540 2864 2894 3 
541 2864 2863 1 
542 3594 3593 1 
543 3366 3594 3 
544 2583 2584 1 
545 2336 3124 3 
546 2336 2335 1 
547 3124 3884 3 
548 3124 3123 1 
549 3884 2336 3 
550 3884 3883 1 
551 3365 3366 1 
552 3365 4365 2 
553 2842 4350 3 
554 2842 2841 1 
555 3088 2842 3 
556 3088 3087 1 
557 4105 4106 1 
558 4105 4609 2 
559 4117 4118 1 
560 4117 4341 2 
561 4341 4342 1 
562 3851 3852 1 
563 4569 4575 2 
564 4121 4122 1 
565 4121 4607 2 
566 4843 4844 1 
567 5354 4592 3 
568 5354 5353 1 
569 4592 4890 3 
570 4592 4591 1 
571 4890 5354 3 
572 4890 4889 1 
573 5136 5368 3 
574 5368 5367 1 
575 5881 6109 2 
576 6109 6110 1 
577 5597 5598 1 
578 361 362 1 
579 1356 1106 3 
580 1106 1105 1 
581 133 134 1 
582 905 906 1 
583 2362 1642 3 
584 1642 1641 1 
585 1892 1891 1 
586 1131 1139 2 
587 2342 2864 3 
588 2342 2341 1 
589 2342 2364 3 
590 3861 3862 1 
591 3375 3883 2 
592 3135 3909 2 
593 3135 3136 1 
594 3624 3623 1 
595 3371 3372 1 
596 4369 4869 2 
597 4821 4822 1 
598 4361 4362 1 
599 153 154 1 
600 153 4645 2 
601 114 113 1 
602 5864 5863 1 
603 362 5864 3 
604 6110 114 3 
605 654 864 3 
606 654 653 1 
607 370 654 3 
608 370 369 1 
609 370 616 3 
610 370 864 3 
611 864 616 3 
612 864 863 1 
613 653 1147 2 
614 1133 1134 1 
615 1133 6121 2 
616 1136 1135 1 
617 1134 1136 3 
618 601 602 1 
619 2371 2372 1 
620 1132 1131 1 
621 2372 1132 3 
622 2114 3374 3 
623 2114 2113 1 
624 2606 2114 3 
625 2606 2605 1 
626 2625 2647 2 
627 1391 2605 2 
628 2647 2648 1 
629 2402 2872 3 
630 2872 2871 1 
631 2905 2906 1 
632 3144 3376 3 
633 3144 3143 1 
634 3376 4146 3 
635 3376 3375 1 
636 4146 3144 3 
637 4146 4145 1 
638 3136 2878 3 
639 3143 3641 2 
640 3372 3910 3 
641 3613 4633 2 
642 4847 4848 1 
643 4116 3614 3 
644 3614 3613 1 
645 5623 5895 2 
646 902 132 3 
647 902 901 1 
648 902 6122 3 
649 6122 384 3 
650 6122 6121 1 
651 384 902 3 
652 384 383 1 
653 132 384 3 
654 132 131 1 
655 132 6122 3 
656 1376 1375 1 
657 1662 1650 3 
658 1650 1649 1 
659 622 1144 3 
660 1144 1143 1 
661 2175 2176 1 
662 1898 1897 1 
663 1624 1898 3 
664 1176 2130 3 
665 1176 1175 1 
666 1176 1644 3 
667 1853 1854 1 
668 1644 940 3 
669 1644 1643 1 
670 2621 2622 1 
671 2648 2662 3 
672 1896 1670 3 
673 1896 1895 1 
674 2662 2661 1 
675 1895 2401 2 
676 2401 2402 1 
677 2890 2628 3 
678 2628 2627 1 
679 4634 4633 1 
680 3389 3390 1 
681 3389 4659 2 
682 3892 4660 3 
683 4660 4659 1 
684 4136 3916 3 
685 4136 4135 1 
686 4398 4852 3 
687 4398 4397 1 
688 4374 4852 3 
689 4374 4373 1 
690 4374 4394 3 
691 4374 4398 3 
692 4852 4394 3 
693 4852 4851 1 
694 5121 5143 2 
695 4394 4398 3 
696 4394 4393 1 
697 6123 6124 1 
698 5411 6153 2 
699 6153 6154 1 
700 1431 1432 1 
701 6148 416 3 
702 6148 6147 1 
703 416 144 3 
704 416 415 1 
705 416 642 3 
706 144 6148 3 
707 144 143 1 
708 642 144 3 
709 642 641 1 
710 642 6148 3 
711 1163 1164 1 
712 151 152 1 
713 151 641 2 
714 185 1161 2 
715 1395 1396 1 
716 1395 1649 2 
717 1623 1624 1 
718 2130 1644 3 
719 2130 2129 1 
720 1937 1938 1 
721 2148 1908 3 
722 1908 1907 1 
723 2147 2148 1 
724 2656 2934 3 
725 2656 2655 1 
726 3174 2656 3 
727 3174 3173 1 
728 2889 3681 2 
729 2889 2890 1 
730 2655 3151 2 
731 3390 4412 3 
732 4153 4154 1 
733 4412 4411 1 
734 3678 4136 3 
735 3678 3677 1 
736 4134 4133 1 
737 3378 4134 3 
738 4922 4196 3 
739 4922 4948 3 
740 5153 5154 1 
741 4196 4195 1 
742 4908 4948 3 
743 4631 4899 2 
744 4893 5153 2 
745 5144 5143 1 
746 4661 4662 1 
747 4661 4929 2 
748 4675 4887 2 
749 5154 5144 3 
750 4929 4930 1 
751 404 5926 3 
752 404 403 1 
753 5412 378 3 
754 5412 5411 1 
755 5412 6156 3 
756 378 6156 3 
757 378 377 1 
758 6156 112 3 
759 6156 6155 1 
760 112 378 3 
761 112 111 1 
762 112 5412 3 
763 422 1152 3 
764 422 421 1 
765 934 422 3 
766 934 933 1 
767 934 1152 3 
768 1151 6159 2 
769 415 421 2 
770 1681 1682 1 
771 3402 2900 3 
772 3401 3435 2 
773 3401 3402 1 
774 3435 3436 1 
775 2900 2899 1 
776 2899 3673 2 
777 2933 3649 2 
778 2934 3174 3 
779 2934 2933 1 
780 3631 3679 2 
781 3679 3680 1 
782 3682 2428 3 
783 3682 3681 1 
784 3632 3682 3 
785 3632 3631 1 
786 2428 3632 3 
787 2428 2427 1 
788 3657 3658 1 
789 3911 3912 1 
790 4443 4444 1 
791 4430 4168 3 
792 4430 4429 1 
793 4430 4674 3 
794 4168 4428 3 
795 4168 4167 1 
796 4428 4674 3 
797 4428 4427 1 
798 4428 4430 3 
799 4458 4457 1 
800 4444 4458 3 
801 4674 4168 3 
802 4674 4673 1 
803 3377 3378 1 
804 4195 5155 2 
805 4700 4699 1 
806 4912 4700 3 
807 5186 5174 3 
808 5186 5185 1 
809 5174 5446 3 
810 5174 5173 1 
811 4930 5174 3 
812 4906 5186 3 
813 5894 5424 3 
814 5185 5447 2 
815 5642 404 3 
816 5642 5641 1 
817 5893 5894 1 
818 5926 5642 3 
819 5926 5925 1 
820 5393 5394 1 
821 171 172 1 
822 674 430 3 
823 674 673 1 
824 914 674 3 
825 914 913 1 
826 1189 1190 1 
827 673 951 2 
828 6213 6214 1 
829 946 448 3 
830 946 945 1 
831 952 460 3 
832 952 951 1 
833 702 952 3 
834 702 701 1 
835 671 921 2 
836 921 922 1 
837 701 1173 2 
838 954 1208 3 
839 954 953 1 
840 954 1174 3 
841 2466 1926 3 
842 1926 1925 1 
843 1165 1166 1 
844 1165 1925 2 
845 2465 2466 1 
846 1922 1700 3 
847 1922 1921 1 
848 2403 2404 1 
849 2403 2411 2 
850 2444 2950 3 
851 2444 2443 1 
852 3176 3175 1 
853 2160 3176 3 
854 2902 2684 3 
855 2684 2683 1 
856 3476 3412 3 
857 3412 3411 1 
858 5160 4414 3 
859 5160 5159 1 
860 5413 5659 2 
861 5675 5676 1 
862 6184 5918 3 
863 5918 5917 1 
864 5660 5956 3 
865 5660 5659 1 
866 170 169 1 
867 190 170 3 
868 452 214 3 
869 405 913 2 
870 214 213 1 
871 177 1189 2 
872 439 665 2 
873 6195 6196 1 
874 222 178 3 
875 178 177 1 
876 692 702 3 
877 692 691 1 
878 692 952 3 
879 460 702 3 
880 460 459 1 
881 460 692 3 
882 459 935 2 
883 425 447 2 
884 936 682 3 
885 936 935 1 
886 682 672 3 
887 682 681 1 
888 682 710 3 
889 710 936 3 
890 710 709 1 
891 672 936 3 
892 672 671 1 
893 672 710 3 
894 1453 1665 2 
895 1665 1666 1 
896 1181 1191 2 
897 2448 2447 1 
898 1436 2448 3 
899 2185 2186 1 
900 2185 2193 2 
901 2194 2444 3 
902 2194 2193 1 
903 2950 2194 3 
904 2950 2949 1 
905 2924 2923 1 
906 2929 2930 1 
907 3439 3440 1 
908 3437 3439 2 
909 3712 3928 3 
910 3712 3711 1 
911 3928 3458 3 
912 3928 3927 1 
913 3458 3712 3 
914 3458 3457 1 
915 3457 3683 2 
916 3661 3927 2 
917 3683 3684 1 
918 3932 3934 3 
919 3932 3931 1 
920 3694 4956 3 
921 3694 3693 1 
922 3694 3934 3 
923 3694 3932 3 
924 3948 3947 1 
925 3934 4956 3 
926 3934 3933 1 
927 4216 4684 3 
928 4216 4215 1 
929 4216 4424 3 
930 4424 4684 3 
931 4424 4423 1 
932 4684 4162 3 
933 4684 4683 1 
934 4162 4216 3 
935 4162 4161 1 
936 4162 4424 3 
937 4441 4442 1 
938 3947 4709 2 
939 4683 4945 2 
940 4946 4945 1 
941 5190 4946 3 
942 5191 5192 1 
943 5673 5674 1 
944 5674 5936 3 
945 5936 5935 1 
946 5415 5416 1 
947 5415 5673 2 
948 5717 5718 1 
949 5206 5964 3 
950 5206 5205 1 
951 5206 5938 3 
952 6174 5206 3 
953 6174 6173 1 
954 5964 6174 3 
955 5964 5963 1 
956 5938 5964 3 
957 5938 5937 1 
958 5938 6174 3 
959 423 5933 2 
960 196 194 3 
961 194 193 1 
962 5967 6173 2 
963 6196 406 3 
964 406 405 1 
965 1964 1720 3 
966 1964 1963 1 
967 1942 1964 3 
968 1942 1941 1 
969 1720 1719 1 
970 2217 2218 1 
971 2000 2476 3 
972 2000 1999 1 
973 2476 2724 3 
974 2476 2475 1 
975 2476 3432 3 
976 2208 2207 1 
977 2208 3432 3 
978 2208 2702 3 
979 3202 2924 3 
980 2923 2947 2 
981 3946 3450 3 
982 3946 3945 1 
983 3450 3958 3 
984 3450 3449 1 
985 3958 3946 3 
986 3958 3957 1 
987 2948 3958 3 
988 2948 2947 1 
989 2948 3450 3 
990 2948 3946 3 
991 3422 3702 3 
992 3702 3701 1 
993 3421 3422 1 
994 3421 3711 2 
995 4201 4202 1 
996 3974 3738 3 
997 3738 3737 1 
998 3961 4435 2 
999 4435 4436 1 
1000 4164 4450 3 
1001 3973 3974 1 
1002 3973 4687 2 
1003 4968 3948 3 
1004 4219 4693 2 
1005 4219 4220 1 
1006 4681 4682 1 
1007 4681 4715 2 
1008 4215 4437 2 
1009 4694 4212 3 
1010 4694 4693 1 
1011 3686 4694 3 
1012 3686 3685 1 
1013 4212 3686 3 
1014 4212 4211 1 
1015 4967 4968 1 
1016 4161 5199 2 
1017 5224 5223 1 
1018 5458 5224 3 
1019 5457 5458 1 
1020 4697 5457 2 
1021 5678 5677 1 
1022 5718 5678 3 
1023 5723 5724 1 
1024 5723 6221 2 
1025 5441 5442 1 
1026 5932 5966 3 
1027 5932 5931 1 
1028 5932 5934 3 
1029 5966 204 3 
1030 5966 5965 1 
1031 5934 5966 3 
1032 5934 5933 1 
1033 204 5932 3 
1034 204 203 1 
1035 204 5934 3 
1036 6163 6164 1 
1037 5902 446 3 
1038 5902 5901 1 
1039 446 1384 3 
1040 446 445 1 
1041 1725 1726 1 
1042 1222 1221 1 
1043 1228 1222 3 
1044 2195 2196 1 
1045 2195 2207 2 
1046 2196 2208 3 
1047 2196 2702 3 
1048 2196 3432 3 
1049 2704 3424 3 
1050 2704 2703 1 
1051 3701 3975 2 
1052 3975 3976 1 
1053 3944 3714 3 
1054 3714 3713 1 
1055 4438 4988 3 
1056 4438 4437 1 
1057 4988 4206 3 
1058 4988 4987 1 
1059 4206 4438 3 
1060 4206 4205 1 
1061 5724 5714 3 
1062 5714 5713 1 
1063 466 5464 3 
1064 466 465 1 
1065 5464 232 3 
1066 5464 5463 1 
1067 232 466 3 
1068 232 231 1 
1069 461 462 1 
1070 1488 1487 1 
1071 1476 1488 3 
1072 1211 1212 1 
1073 1211 1221 2 
1074 948 1220 3 
1075 1220 1219 1 
1076 2235 2236 1 
1077 1730 736 3 
1078 1730 1729 1 
1079 1736 1735 1 
1080 2229 2230 1 
1081 2236 1736 3 
1082 1465 1466 1 
1083 1465 1473 2 
1084 2211 2461 2 
1085 2461 2462 1 
1086 2453 2454 1 
1087 2453 3519 2 
1088 4479 4713 2 
1089 4969 4987 2 
1090 4259 4721 2 
1091 4982 4992 3 
1092 4982 4981 1 
1093 5713 6005 2 
1094 5456 4998 3 
1095 5456 5455 1 
1096 6000 5456 3 
1097 6000 5999 1 
1098 5974 226 3 
1099 5974 5973 1 
1100 236 242 3 
1101 236 5974 3 
1102 236 235 1 
1103 731 749 2 
1104 1951 1952 1 
1105 217 1951 2 
1106 1475 1476 1 
1107 1247 1475 2 
1108 1729 2229 2 
1109 1219 1497 2 
1110 2729 2730 1 
1111 1993 1994 1 
1112 1993 2729 2 
1113 1473 1474 1 
1114 1497 1498 1 
1115 1994 2240 3 
1116 1491 1735 2 
1117 2240 2239 1 
1118 1498 1994 3 
1119 1498 2240 3 
1120 1718 2240 3 
1121 2490 2489 1 
1122 2248 2490 3 
1123 2737 2738 1 
1124 2737 3463 2 
1125 2734 2720 3 
1126 3722 3478 3 
1127 3722 3721 1 
1128 3722 4486 3 
1129 3749 3750 1 
1130 3465 3466 1 
1131 3465 3749 2 
1132 3966 3494 3 
1133 3966 3965 1 
1134 4983 4984 1 
1135 4983 4253 2 
1136 4015 4016 1 
1137 4480 4260 3 
1138 4480 4479 1 
1139 4970 4480 3 
1140 4970 4969 1 
1141 4260 4970 3 
1142 4260 4259 1 
1143 4975 4976 1 
1144 4283 4975 2 
1145 5243 5244 1 
1146 4731 5243 2 
1147 6025 6026 1 
1148 4998 6000 3 
1149 4998 4997 1 
1150 2 4998 3 
1151 2 1 1 
1152 2 6000 3 
1153 2 5456 3 
1154 226 236 3 
1155 226 225 1 
1156 245 246 1 
1157 245 1005 2 
1158 750 734 3 
1159 750 749 1 
1160 734 1004 3 
1161 734 733 1 
1162 1004 750 3 
1163 1004 1003 1 
1164 5 733 2 
1165 1241 1242 1 
1166 1013 1241 2 
1167 2245 2246 1 
1168 1973 2245 2 
1169 1474 1478 3 
1170 1478 1477 1 
1171 2506 2505 1 
1172 1538 2506 3 
1173 2251 2489 2 
1174 2247 2248 1 
1175 3493 4021 2 
1176 4228 4227 1 
1177 3997 3998 1 
1178 4016 4232 3 
1179 4223 4224 1 
1180 4493 4735 2 
1181 4735 4736 1 
1182 5489 5789 2 
1183 4756 6234 3 
1184 4756 4755 1 
1185 6004 4756 3 
1186 6004 6003 1 
1187 508 507 1 
1188 508 254 3 
1189 5982 508 3 
1190 254 253 1 
1191 254 5982 3 
1192 4997 5729 2 
1193 5732 266 3 
1194 266 265 1 
1195 267 268 1 
1196 9 10 1 
1197 9 267 2 
1198 473 474 1 
1199 6016 520 3 
1200 6016 6015 1 
1201 520 30 3 
1202 520 519 1 
1203 30 6016 3 
1204 30 29 1 
1205 515 516 1 
1206 6002 244 3 
1207 234 233 1 
1208 244 243 1 
1209 506 234 3 
1210 233 269 2 
1211 754 756 3 
1212 1030 782 3 
1213 1030 1029 1 
1214 723 989 2 
1215 782 1276 3 
1216 782 781 1 
1217 989 990 1 
1218 756 755 1 
1219 721 722 1 
1220 1012 782 3 
1221 1012 1011 1 
1222 1012 1030 3 
1223 1012 1276 3 
1224 297 298 1 
1225 297 1749 2 
1226 1276 1030 3 
1227 1276 1275 1 
1228 711 721 2 
1229 1244 778 3 
1230 1244 1243 1 
1231 1011 1483 2 
1232 1483 1484 1 
1233 981 1235 2 
1234 981 982 1 
1235 1280 1786 3 
1236 1280 1279 1 
1237 1508 1280 3 
1238 1508 1507 1 
1239 1508 1786 3 
1240 982 1974 3 
1241 1008 1280 3 
1242 1008 1007 1 
1243 1008 1508 3 
1244 1974 1973 1 
1245 1767 1768 1 
1246 1747 1757 2 
1247 1757 1758 1 
1248 2002 2486 3 
1249 2486 2485 1 
1250 2005 2007 2 
1251 2007 2008 1 
1252 1724 1748 3 
1253 1724 1723 1 
1254 1724 2012 3 
1255 1723 2253 2 
1256 2773 2774 1 
1257 1748 1766 3 
1258 1748 1747 1 
1259 2254 2280 3 
1260 2254 2786 3 
1261 3223 3224 1 
1262 2253 2254 1 
1263 2496 2536 3 
1264 1504 2252 3 
1265 1504 1503 1 
1266 1751 1752 1 
1267 1751 2769 2 
1268 2503 2504 1 
1269 2503 2739 2 
1270 2279 2509 2 
1271 2509 2510 1 
1272 2276 2018 3 
1273 2276 2275 1 
1274 2754 2276 3 
1275 2754 2753 1 
1276 2018 2508 3 
1277 2018 2017 1 
1278 2018 2754 3 
1279 2508 2276 3 
1280 2508 2507 1 
1281 2508 2754 3 
1282 2010 2258 3 
1283 2010 2009 1 
1284 2258 2270 3 
1285 2258 2257 1 
1286 2270 2010 3 
1287 2270 2269 1 
1288 1996 1995 1 
1289 2746 1996 3 
1290 4257 4258 1 
1291 3002 2778 3 
1292 3002 3001 1 
1293 3002 3006 3 
1294 2778 3006 3 
1295 2778 2777 1 
1296 3006 2992 3 
1297 3006 3005 1 
1298 2992 2778 3 
1299 2992 2991 1 
1300 2992 3002 3 
1301 3262 3788 3 
1302 3262 3261 1 
1303 3788 2262 3 
1304 3788 3787 1 
1305 3030 3756 3 
1306 3030 3029 1 
1307 3756 3004 3 
1308 3756 3755 1 
1309 3004 3030 3 
1310 3004 3003 1 
1311 2518 3262 3 
1312 2518 2517 1 
1313 2518 3788 3 
1314 2262 3262 3 
1315 2262 2261 1 
1316 2262 2518 3 
1317 3759 3767 2 
1318 3514 3760 3 
1319 3514 3513 1 
1320 4022 4021 1 
1321 3770 3769 1 
1322 4012 3770 3 
1323 4017 4285 2 
1324 4285 4286 1 
1325 3992 3502 3 
1326 3778 3777 1 
1327 3502 3501 1 
1328 3505 3765 2 
1329 4747 4748 1 
1330 3773 3774 1 
1331 3773 4747 2 
1332 4786 5046 3 
1333 5046 5045 1 
1334 4529 4530 1 
1335 4785 4786 1 
1336 4271 4743 2 
1337 4245 4529 2 
1338 4724 4723 1 
1339 4275 5525 2 
1340 4047 4499 2 
1341 4728 4268 3 
1342 4728 4727 1 
1343 4498 4728 3 
1344 4498 4497 1 
1345 5526 5738 3 
1346 5526 5525 1 
1347 5526 5744 3 
1348 4494 5744 3 
1349 4494 4493 1 
1350 4494 5526 3 
1351 5744 5738 3 
1352 5744 5743 1 
1353 5738 4494 3 
1354 5738 5737 1 
1355 4515 4741 2 
1356 5259 5260 1 
1357 5259 5737 2 
1358 5750 5749 1 
1359 5496 5520 3 
1360 5494 5750 3 
1361 4755 5501 2 
1362 5505 5506 1 
1363 5499 5500 1 
1364 5499 5505 2 
1365 5741 5742 1 
1366 5741 5751 2 
1367 5748 5734 3 
1368 5748 5747 1 
1369 5748 6232 3 
1370 5734 5472 3 
1371 5734 5733 1 
1372 5734 6232 3 
1373 6232 5472 3 
1374 6232 6231 1 
1375 5472 5748 3 
1376 5472 5471 1 
1377 5767 5768 1 
1378 5512 6020 3 
1379 5512 5511 1 
1380 6020 5770 3 
1381 6020 6019 1 
1382 6008 6224 3 
1383 6008 6007 1 
1384 5795 5796 1 
1385 6014 6013 1 
1386 268 1024 3 
1387 1024 1023 1 
1388 6242 6010 3 
1389 512 511 1 
1390 512 274 3 
1391 512 5766 3 
1392 6010 6009 1 
1393 6010 5766 3 
1394 5784 6038 3 
1395 6038 6037 1 
1396 274 273 1 
1397 274 6010 3 
1398 5766 5765 1 
1399 5766 6242 3 
1400 22 512 3 
1401 22 274 3 
1402 22 6242 3 
1403 29 251 2 
1404 33 501 2 
1405 258 38 3 
1406 38 37 1 
1407 284 283 1 
1408 516 284 3 
1409 25 26 1 
1410 787 788 1 
1411 787 1029 2 
1412 270 522 3 
1413 270 768 3 
1414 270 526 3 
1415 269 270 1 
1416 3 747 2 
1417 768 1022 3 
1418 747 748 1 
1419 1020 1002 3 
1420 1020 1019 1 
1421 778 1042 3 
1422 778 777 1 
1423 1042 1244 3 
1424 1042 1041 1 
1425 781 1523 2 
1426 536 1020 3 
1427 536 535 1 
1428 1279 2019 2 
1429 759 777 2 
1430 1019 1779 2 
1431 1056 1266 3 
1432 1056 1055 1 
1433 1266 2014 3 
1434 1266 1265 1 
1435 2014 1056 3 
1436 2014 2013 1 
1437 2020 1780 3 
1438 2020 2019 1 
1439 1746 1034 3 
1440 1746 1745 1 
1441 1746 1780 3 
1442 1746 2020 3 
1443 1780 1034 3 
1444 1780 1779 1 
1445 1766 1724 3 
1446 1766 1765 1 
1447 1766 2012 3 
1448 2012 1748 3 
1449 2012 2011 1 
1450 1265 2273 2 
1451 2049 2050 1 
1452 2294 2266 3 
1453 2294 2293 1 
1454 2741 2742 1 
1455 2011 2741 2 
1456 2770 2294 3 
1457 2770 2769 1 
1458 2266 2770 3 
1459 2266 2265 1 
1460 2274 2266 3 
1461 2274 2273 1 
1462 2274 2294 3 
1463 2274 2770 3 
1464 2504 2740 3 
1465 2504 2982 3 
1466 2982 2981 1 
1467 2740 2739 1 
1468 2740 2982 3 
1469 1519 2275 2 
1470 2285 2286 1 
1471 2526 2764 3 
1472 3018 2760 3 
1473 2286 2540 3 
1474 2286 2780 3 
1475 2764 2763 1 
1476 2531 2731 2 
1477 2760 2759 1 
1478 3020 2798 3 
1479 3020 3019 1 
1480 3020 3546 3 
1481 3020 3026 3 
1482 2261 2771 2 
1483 3268 2768 3 
1484 3268 3267 1 
1485 2768 2792 3 
1486 2768 2767 1 
1487 2792 3268 3 
1488 2792 2791 1 
1489 3261 3545 2 
1490 3522 3521 1 
1491 4258 3522 3 
1492 3277 3278 1 
1493 3790 3534 3 
1494 3790 3789 1 
1495 3264 3538 3 
1496 3264 3263 1 
1497 3264 3272 3 
1498 3538 3034 3 
1499 3538 3537 1 
1500 3272 3034 3 
1501 3272 3271 1 
1502 3272 3538 3 
1503 3034 3264 3 
1504 3034 3033 1 
1505 3287 3521 2 
1506 3550 3549 1 
1507 3549 3779 2 
1508 3511 3512 1 
1509 3304 3550 3 
1510 3029 4023 2 
1511 3303 3304 1 
1512 3809 3810 1 
1513 3273 3809 2 
1514 3269 3270 1 
1515 3543 3811 2 
1516 4523 5035 2 
1517 3013 4513 2 
1518 3014 3544 3 
1519 3014 3013 1 
1520 3014 4028 3 
1521 3014 4046 3 
1522 4524 4523 1 
1523 3527 3528 1 
1524 3527 3777 2 
1525 4056 4055 1 
1526 4810 4056 3 
1527 4272 4278 3 
1528 4272 4271 1 
1529 4266 4272 3 
1530 4266 4265 1 
1531 4266 4270 3 
1532 4278 4266 3 
1533 4278 4277 1 
1534 4019 4020 1 
1535 4268 4498 3 
1536 4268 4267 1 
1537 4246 4526 3 
1538 4246 4245 1 
1539 4246 4274 3 
1540 4274 4788 3 
1541 4274 4273 1 
1542 4274 4526 3 
1543 4526 4788 3 
1544 4526 4525 1 
1545 4775 5011 2 
1546 4273 5297 2 
1547 5011 5012 1 
1548 4788 4246 3 
1549 4788 4787 1 
1550 5507 5508 1 
1551 4262 4516 3 
1552 4262 4261 1 
1553 4510 5530 3 
1554 4510 4509 1 
1555 5530 4776 3 
1556 5530 5529 1 
1557 4776 4510 3 
1558 4776 4775 1 
1559 4773 5013 2 
1560 5013 5014 1 
1561 4780 4262 3 
1562 4780 4779 1 
1563 4516 4780 3 
1564 4516 4515 1 
1565 4994 4993 1 
1566 4781 5529 2 
1567 5495 5496 1 
1568 5502 5501 1 
1569 5014 5502 3 
1570 5015 5519 2 
1571 4753 5533 2 
1572 5533 5534 1 
1573 4729 4993 2 
1574 5762 5004 3 
1575 5762 5761 1 
1576 4766 5762 3 
1577 4766 4765 1 
1578 15 499 2 
1579 6018 6014 3 
1580 5783 5795 2 
1581 5783 5784 1 
1582 247 5753 2 
1583 5774 6024 3 
1584 5774 5773 1 
1585 5800 5774 3 
1586 5800 5799 1 
1587 5800 6032 3 
1588 6032 5774 3 
1589 6032 6031 1 
1590 6024 5800 3 
1591 6024 6023 1 
1592 6024 6032 3 
1593 5772 6012 3 
1594 5772 5771 1 
1595 252 5772 3 
1596 252 251 1 
1597 21 22 1 
1598 21 511 2 
1599 6012 252 3 
1600 6012 6011 1 
1601 6022 248 3 
1602 6022 6021 1 
1603 34 248 3 
1604 34 33 1 
1605 34 6022 3 
1606 248 12 3 
1607 248 247 1 
1608 12 34 3 
1609 12 11 1 
1610 12 6022 3 
1611 273 541 2 
1612 1015 1016 1 
1613 11 6051 2 
1614 501 502 1 
1615 788 514 3 
1616 37 6039 2 
1617 1067 1068 1 
1618 6039 6040 1 
1619 6051 6052 1 
1620 521 1067 2 
1621 767 768 1 
1622 767 1043 2 
1623 526 522 3 
1624 526 1022 3 
1625 1329 1330 1 
1626 281 282 1 
1627 281 785 2 
1628 518 296 3 
1629 518 517 1 
1630 1032 1038 3 
1631 1032 1031 1 
1632 1038 772 3 
1633 1038 1037 1 
1634 1268 1760 3 
1635 1268 1267 1 
1636 1278 1268 3 
1637 1278 1277 1 
1638 1278 1760 3 
1639 1278 1536 3 
1640 1031 1039 2 
1641 1018 1040 3 
1642 1018 1017 1 
1643 1018 1534 3 
1644 1040 1274 3 
1645 1040 1039 1 
1646 1040 1534 3 
1647 1274 1018 3 
1648 1274 1273 1 
1649 1536 1268 3 
1650 1536 1535 1 
1651 1760 1536 3 
1652 1760 1759 1 
1653 1534 1274 3 
1654 1534 1533 1 
1655 1769 1770 1 
1656 1034 2020 3 
1657 1034 1033 1 
1658 1802 2062 3 
1659 1802 1801 1 
1660 1284 1528 3 
1661 1284 1283 1 
1662 1284 1802 3 
1663 2062 1284 3 
1664 2062 2061 1 
1665 2284 1778 3 
1666 2284 2283 1 
1667 1292 2284 3 
1668 1292 1291 1 
1669 1778 1292 3 
1670 1778 1777 1 
1671 1528 2062 3 
1672 1528 1527 1 
1673 1528 1802 3 
1674 2056 1262 3 
1675 2056 2055 1 
1676 1550 1530 3 
1677 1550 1549 1 
1678 1550 2056 3 
1679 770 1028 3 
1680 770 769 1 
1681 1773 2297 2 
1682 2297 2298 1 
1683 1521 1522 1 
1684 1283 1521 2 
1685 2025 2026 1 
1686 2025 2807 2 
1687 2571 2572 1 
1688 2318 2040 3 
1689 2318 2317 1 
1690 3546 3026 3 
1691 3546 3545 1 
1692 3026 2798 3 
1693 3026 3025 1 
1694 2301 2302 1 
1695 2301 2797 2 
1696 2798 3546 3 
1697 2798 2797 1 
1698 2271 2272 1 
1699 2271 2763 2 
1700 2521 2522 1 
1701 2521 3515 2 
1702 3033 4061 2 
1703 4024 4023 1 
1704 3577 3578 1 
1705 3285 3286 1 
1706 3285 3293 2 
1707 3293 3294 1 
1708 3270 4024 3 
1709 3032 3536 3 
1710 3032 3031 1 
1711 3032 3274 3 
1712 3289 3290 1 
1713 3263 3535 2 
1714 3242 3032 3 
1715 3242 3241 1 
1716 3536 3242 3 
1717 3536 3535 1 
1718 3274 3242 3 
1719 3274 3273 1 
1720 3274 3536 3 
1721 3315 4035 2 
1722 3795 3796 1 
1723 3537 3795 2 
1724 3544 4046 3 
1725 3544 3543 1 
1726 4028 3544 3 
1727 4028 4027 1 
1728 4046 4028 3 
1729 4046 4045 1 
1730 4534 5036 3 
1731 4534 4533 1 
1732 5036 4282 3 
1733 5036 5035 1 
1734 4039 4040 1 
1735 4039 4277 2 
1736 4264 5036 3 
1737 4264 4263 1 
1738 4264 4534 3 
1739 4282 4264 3 
1740 4282 4281 1 
1741 4282 4534 3 
1742 4809 4810 1 
1743 4281 4787 2 
1744 4517 4809 2 
1745 4287 4288 1 
1746 4005 4287 2 
1747 4790 4789 1 
1748 4316 4790 3 
1749 4525 4789 2 
1750 5298 5297 1 
1751 4288 5298 3 