ITEM: TIMESTEP
88000
ITEM: NUMBER OF ENTRIES
8130
ITEM: BOX BOUNDS pp pp ff
0.0000000000000000e+00 7.2168784000000002e+01
0.0000000000000000e+00 7.2168784000000002e+01
0.0000000000000000e+00 1.2000000000000000e+01
ITEM: ENTRIES index c_1[1] c_1[2] c_1[3]
1 6022 248 3 
2 6022 6021 1 
3 12 34 3 
4 12 11 1 
5 12 6022 3 
6 34 248 3 
7 34 33 1 
8 34 6022 3 
9 248 12 3 
10 248 247 1 
11 244 243 1 
12 33 501 2 
13 6002 244 3 
14 501 502 1 
15 6051 6052 1 
16 11 6051 2 
17 6052 748 3 
18 748 747 1 
19 1019 1779 2 
20 1747 1757 2 
21 1748 1766 3 
22 1748 1747 1 
23 1766 1724 3 
24 1766 1765 1 
25 1766 2012 3 
26 2012 1748 3 
27 2012 2011 1 
28 1724 1748 3 
29 1724 1723 1 
30 1724 2012 3 
31 2279 2509 2 
32 3018 2760 3 
33 2261 2771 2 
34 2223 3447 2 
35 3262 3788 3 
36 3262 3261 1 
37 2992 2778 3 
38 2992 2991 1 
39 2992 3002 3 
40 2262 3262 3 
41 2262 2261 1 
42 2262 2518 3 
43 2518 3262 3 
44 2518 2517 1 
45 2518 3788 3 
46 3002 2778 3 
47 3002 3001 1 
48 3002 3006 3 
49 3006 2992 3 
50 3006 3005 1 
51 2778 3006 3 
52 2778 2777 1 
53 3788 2262 3 
54 3788 3787 1 
55 2991 3277 2 
56 4726 3506 3 
57 4726 4725 1 
58 4018 3506 3 
59 4018 4017 1 
60 4018 4726 3 
61 4504 4018 3 
62 4504 4503 1 
63 4504 4726 3 
64 3506 4504 3 
65 3506 3505 1 
66 6246 4488 3 
67 6246 6245 1 
68 4488 5238 3 
69 4488 4487 1 
70 5238 6246 3 
71 5238 5237 1 
72 4735 4736 1 
73 6011 6021 2 
74 474 6014 3 
75 474 473 1 
76 24 474 3 
77 24 23 1 
78 24 6018 3 
79 24 6014 3 
80 6018 474 3 
81 6018 6017 1 
82 6014 6018 3 
83 6014 6013 1 
84 21 22 1 
85 21 511 2 
86 6001 6002 1 
87 6001 6009 2 
88 6012 5772 3 
89 6012 6011 1 
90 252 6012 3 
91 252 251 1 
92 252 5768 3 
93 5772 252 3 
94 5772 5771 1 
95 5768 5772 3 
96 5768 5767 1 
97 5768 6012 3 
98 47 48 1 
99 47 517 2 
100 521 1067 2 
101 1021 1022 1 
102 535 1021 2 
103 778 1042 3 
104 778 777 1 
105 545 553 2 
106 1002 1020 3 
107 1002 1001 1 
108 1002 1758 3 
109 1758 1020 3 
110 1758 1757 1 
111 1020 536 3 
112 1020 1019 1 
113 536 1002 3 
114 536 535 1 
115 536 1758 3 
116 1522 1774 3 
117 1522 1521 1 
118 1522 1772 3 
119 2773 2774 1 
120 2791 3267 2 
121 1772 1774 3 
122 1772 1771 1 
123 2526 2764 3 
124 2526 2525 1 
125 2298 2526 3 
126 2298 2297 1 
127 2298 2774 3 
128 2764 2298 3 
129 2764 2763 1 
130 2002 2486 3 
131 2002 2774 3 
132 2510 2509 1 
133 2753 2773 2 
134 2760 2759 1 
135 2792 3268 3 
136 2792 2791 1 
137 2759 3251 2 
138 2271 2763 2 
139 2531 2731 2 
140 1519 2275 2 
141 2512 2530 3 
142 2512 2522 3 
143 2302 2512 3 
144 2532 2772 3 
145 2532 2531 1 
146 2530 2532 3 
147 2530 2529 1 
148 2772 2530 3 
149 2772 2771 1 
150 2522 2532 3 
151 2522 2772 3 
152 2301 2302 1 
153 2301 2797 2 
154 2777 3787 2 
155 4011 4012 1 
156 3769 4503 2 
157 3502 3501 1 
158 3544 4046 3 
159 3544 3543 1 
160 3992 3502 3 
161 3014 3544 3 
162 3014 3013 1 
163 3014 4028 3 
164 3014 4046 3 
165 4028 3544 3 
166 4028 4027 1 
167 4046 4028 3 
168 4046 4045 1 
169 4493 4735 2 
170 5278 5520 3 
171 5278 5277 1 
172 5496 5278 3 
173 5496 5495 1 
174 5004 4766 3 
175 5004 5003 1 
176 17 18 1 
177 5765 6013 2 
178 5803 5804 1 
179 1067 1068 1 
180 786 296 3 
181 786 785 1 
182 786 790 3 
183 518 786 3 
184 518 517 1 
185 518 790 3 
186 292 291 1 
187 546 792 3 
188 546 545 1 
189 546 1068 3 
190 792 554 3 
191 792 791 1 
192 792 1068 3 
193 554 546 3 
194 554 553 1 
195 554 1068 3 
196 1267 1549 2 
197 1282 1772 3 
198 1282 1281 1 
199 1282 1522 3 
200 1281 1541 2 
201 1774 1282 3 
202 1774 1773 1 
203 2486 2485 1 
204 2486 2774 3 
205 1773 2297 2 
206 1520 2296 3 
207 1520 1519 1 
208 1520 2818 3 
209 2818 2296 3 
210 2818 2817 1 
211 2296 2314 3 
212 2296 2295 1 
213 2314 1520 3 
214 2314 2313 1 
215 2314 2818 3 
216 2037 2527 2 
217 2527 2528 1 
218 1784 3252 3 
219 1784 1783 1 
220 3252 2282 3 
221 3252 3251 1 
222 2528 3780 3 
223 3780 3779 1 
224 3746 3745 1 
225 3746 4036 3 
226 4026 3746 3 
227 4026 4036 3 
228 4036 4035 1 
229 3804 4052 3 
230 4012 3770 3 
231 3803 3804 1 
232 3803 4051 2 
233 4287 4288 1 
234 3312 3311 1 
235 3312 3804 3 
236 4288 5298 3 
237 5298 5297 1 
238 4523 5035 2 
239 3770 3769 1 
240 3991 3992 1 
241 3281 3282 1 
242 3281 3991 2 
243 4315 4316 1 
244 5277 5283 2 
245 4796 4760 3 
246 4796 4795 1 
247 4765 5537 2 
248 5788 5787 1 
249 18 5788 3 
250 542 6030 3 
251 542 541 1 
252 20 1330 3 
253 1330 1329 1 
254 296 518 3 
255 296 295 1 
256 790 296 3 
257 790 789 1 
258 258 38 3 
259 38 37 1 
260 1278 1268 3 
261 1278 1277 1 
262 1278 1760 3 
263 1278 1536 3 
264 1760 1536 3 
265 1760 1759 1 
266 1268 1760 3 
267 1268 1267 1 
268 1536 1268 3 
269 1536 1535 1 
270 289 1759 2 
271 1542 1792 3 
272 1542 1541 1 
273 1542 2308 3 
274 2308 1290 3 
275 2308 2307 1 
276 1792 2308 3 
277 1792 1791 1 
278 1290 1792 3 
279 1290 1289 1 
280 1290 1542 3 
281 2961 2962 1 
282 1289 2283 2 
283 1778 1292 3 
284 1778 1777 1 
285 2284 1778 3 
286 2284 2283 1 
287 1292 2284 3 
288 1292 1291 1 
289 2563 2817 2 
290 2313 2775 2 
291 3291 3299 2 
292 4025 4026 1 
293 4025 3745 2 
294 4052 4051 1 
295 4052 3312 3 
296 3031 3309 2 
297 4005 4287 2 
298 3306 3558 3 
299 3306 3305 1 
300 3306 3574 3 
301 4801 4802 1 
302 3574 4066 3 
303 3574 3573 1 
304 3558 4066 3 
305 3558 3557 1 
306 3558 3574 3 
307 4790 4789 1 
308 4066 3306 3 
309 4066 4065 1 
310 4316 4790 3 
311 4537 4759 2 
312 5760 4804 3 
313 5760 5759 1 
314 5284 5296 3 
315 5284 5283 1 
316 5284 5760 3 
317 4804 5284 3 
318 4804 4803 1 
319 5296 4804 3 
320 5296 5295 1 
321 5296 5760 3 
322 5538 6048 3 
323 5538 5537 1 
324 5544 5318 3 
325 5318 5317 1 
326 329 330 1 
327 329 561 2 
328 783 5777 2 
329 70 798 3 
330 70 69 1 
331 70 72 3 
332 798 314 3 
333 798 797 1 
334 314 70 3 
335 314 313 1 
336 72 314 3 
337 72 71 1 
338 72 798 3 
339 1539 1791 2 
340 1301 1569 2 
341 3784 3783 1 
342 2552 3784 3 
343 3792 3292 3 
344 3792 3791 1 
345 3292 3310 3 
346 3292 3291 1 
347 3310 3792 3 
348 3310 3309 1 
349 4086 3332 3 
350 4086 4085 1 
351 4086 4588 3 
352 4588 3776 3 
353 4588 4587 1 
354 3322 3582 3 
355 3322 3321 1 
356 3332 4588 3 
357 3332 3331 1 
358 3331 3567 2 
359 5044 5302 3 
360 5044 5043 1 
361 5814 5044 3 
362 5814 5813 1 
363 5814 5830 3 
364 5043 5317 2 
365 293 523 2 
366 1096 1095 1 
367 2316 1096 3 
368 1540 1572 3 
369 1540 1539 1 
370 1302 1540 3 
371 1302 1301 1 
372 1064 1572 3 
373 1064 1063 1 
374 1064 1540 3 
375 1064 1302 3 
376 1572 1302 3 
377 1572 1571 1 
378 2304 1314 3 
379 1314 1313 1 
380 2581 2582 1 
381 1799 2069 2 
382 1063 1817 2 
383 1826 2070 3 
384 2322 1576 3 
385 2322 2321 1 
386 2070 2069 1 
387 2070 3352 3 
388 2562 3086 3 
389 2562 2561 1 
390 2562 3074 3 
391 3074 3086 3 
392 3074 3073 1 
393 2809 2810 1 
394 2810 2036 3 
395 3067 3321 2 
396 3596 3584 3 
397 3584 3583 1 
398 3776 3332 3 
399 3776 3775 1 
400 3776 4086 3 
401 3582 4312 3 
402 3582 3581 1 
403 3062 3582 3 
404 3062 3061 1 
405 3062 4312 3 
406 3062 3322 3 
407 4312 3322 3 
408 4312 4311 1 
409 4291 4587 2 
410 3568 4058 3 
411 3568 3567 1 
412 3568 4300 3 
413 4292 3568 3 
414 4292 4291 1 
415 4292 4300 3 
416 4058 4292 3 
417 4058 4057 1 
418 4300 4058 3 
419 4300 4299 1 
420 3579 3821 2 
421 3579 3580 1 
422 5830 5044 3 
423 5830 5829 1 
424 5302 5814 3 
425 5302 5301 1 
426 5302 5830 3 
427 74 6084 3 
428 74 73 1 
429 6084 5816 3 
430 6084 6083 1 
431 5610 74 3 
432 5610 5609 1 
433 5610 5816 3 
434 5610 6084 3 
435 5301 6087 2 
436 5816 74 3 
437 5816 5815 1 
438 5559 6053 2 
439 5567 5781 2 
440 354 5806 3 
441 354 353 1 
442 354 5826 3 
443 562 300 3 
444 562 561 1 
445 5794 5568 3 
446 5794 5793 1 
447 5794 5808 3 
448 5560 5808 3 
449 5560 5559 1 
450 5560 5794 3 
451 5808 5568 3 
452 5808 5807 1 
453 5568 5560 3 
454 5568 5567 1 
455 581 1065 2 
456 582 338 3 
457 582 581 1 
458 571 1559 2 
459 1560 1078 3 
460 1560 1559 1 
461 1551 1552 1 
462 844 1560 3 
463 844 843 1 
464 1078 844 3 
465 1078 1077 1 
466 2353 2354 1 
467 2291 2353 2 
468 2354 2582 3 
469 2354 3038 3 
470 2312 2311 1 
471 2582 2824 3 
472 2824 3038 3 
473 1790 2058 3 
474 1790 1789 1 
475 1790 2354 3 
476 3038 3037 1 
477 2046 2312 3 
478 2046 2582 3 
479 2058 2306 3 
480 2058 2057 1 
481 2058 3352 3 
482 2321 2857 2 
483 2338 2072 3 
484 2072 2071 1 
485 3073 2843 2 
486 2036 2035 1 
487 3847 3829 2 
488 3323 3775 2 
489 3830 3324 3 
490 3830 3829 1 
491 3324 3848 3 
492 3324 3323 1 
493 3575 3815 2 
494 4309 4543 2 
495 3822 4572 3 
496 3822 3821 1 
497 3822 4610 3 
498 4572 3850 3 
499 4572 4571 1 
500 3850 3822 3 
501 3850 3849 1 
502 3850 4610 3 
503 3572 4072 3 
504 3572 3571 1 
505 3572 3816 3 
506 4610 4572 3 
507 4610 4609 1 
508 3836 4544 3 
509 3836 3835 1 
510 4544 4798 3 
511 4544 4543 1 
512 4797 5055 2 
513 5081 5333 2 
514 5316 6088 3 
515 6088 6087 1 
516 5083 5089 2 
517 5084 5340 3 
518 5084 5083 1 
519 5084 6072 3 
520 5084 5840 3 
521 5840 6072 3 
522 5840 5839 1 
523 6072 5340 3 
524 6072 6071 1 
525 5340 5840 3 
526 5340 5339 1 
527 5807 5839 2 
528 1148 1147 1 
529 6081 6082 1 
530 81 82 1 
531 81 563 2 
532 306 338 3 
533 306 305 1 
534 306 582 3 
535 82 564 3 
536 82 840 3 
537 572 306 3 
538 572 571 1 
539 572 582 3 
540 1069 1327 2 
541 595 1107 2 
542 1341 1342 1 
543 1341 1831 2 
544 2319 2320 1 
545 817 2319 2 
546 2610 2340 3 
547 2610 2609 1 
548 2580 2579 1 
549 3044 2828 3 
550 3044 3043 1 
551 2828 3604 3 
552 2828 2827 1 
553 1846 2580 3 
554 2337 2338 1 
555 2337 2827 2 
556 3093 3615 2 
557 3605 3819 2 
558 4117 4341 2 
559 4082 3818 3 
560 4082 4081 1 
561 3612 4082 3 
562 3612 3611 1 
563 4322 3572 3 
564 4322 4321 1 
565 3816 4072 3 
566 3816 3815 1 
567 3816 4322 3 
568 4072 4322 3 
569 4072 4071 1 
570 3818 3612 3 
571 3818 3817 1 
572 4798 3836 3 
573 4798 4797 1 
574 3833 4571 2 
575 3833 3834 1 
576 4886 4885 1 
577 4824 4886 3 
578 5098 4836 3 
579 5098 5097 1 
580 5078 5098 3 
581 5078 5077 1 
582 5078 5334 3 
583 4836 5078 3 
584 4836 4835 1 
585 4836 5334 3 
586 5334 5098 3 
587 5334 5333 1 
588 5089 5090 1 
589 97 331 2 
590 115 857 2 
591 839 1337 2 
592 1637 1638 1 
593 1101 1637 2 
594 1574 1586 3 
595 1574 1860 3 
596 848 1368 3 
597 848 1586 3 
598 1354 1108 3 
599 1354 1353 1 
600 1354 1834 3 
601 2063 2064 1 
602 1335 1336 1 
603 1335 1809 2 
604 2090 2074 3 
605 2090 2089 1 
606 1812 1810 3 
607 1812 1811 1 
608 1812 2074 3 
609 1812 2090 3 
610 2074 1810 3 
611 2074 2073 1 
612 1810 2090 3 
613 1810 1809 1 
614 1811 2623 2 
615 3604 3044 3 
616 3604 3603 1 
617 1819 2577 2 
618 3100 2854 3 
619 2854 2853 1 
620 2366 2365 1 
621 2096 2366 3 
622 3092 3606 3 
623 3092 3091 1 
624 3606 3864 3 
625 3606 3605 1 
626 3864 3092 3 
627 3864 3863 1 
628 2584 3360 3 
629 2584 2583 1 
630 3106 2584 3 
631 3106 3105 1 
632 3106 3112 3 
633 4342 4122 3 
634 4342 4822 3 
635 4342 4341 1 
636 4822 4346 3 
637 4822 4821 1 
638 4346 4342 3 
639 4346 4345 1 
640 4122 4822 3 
641 4122 4346 3 
642 4122 4121 1 
643 3360 3106 3 
644 3360 3359 1 
645 3105 3857 2 
646 3112 2584 3 
647 3112 3111 1 
648 3112 3360 3 
649 3593 3863 2 
650 3111 3591 2 
651 3611 3837 2 
652 3837 3838 1 
653 3594 3366 3 
654 3594 3593 1 
655 3834 4114 3 
656 4114 4113 1 
657 4854 5352 3 
658 4854 4853 1 
659 5352 5360 3 
660 5352 5351 1 
661 5360 4854 3 
662 5360 5359 1 
663 4375 4376 1 
664 4375 5375 2 
665 5124 5136 3 
666 5124 5123 1 
667 361 362 1 
668 5620 6106 3 
669 5620 5619 1 
670 98 5620 3 
671 98 97 1 
672 6106 98 3 
673 6106 6105 1 
674 370 654 3 
675 370 369 1 
676 370 616 3 
677 370 864 3 
678 654 864 3 
679 654 653 1 
680 616 654 3 
681 616 615 1 
682 864 616 3 
683 864 863 1 
684 90 116 3 
685 116 115 1 
686 1114 812 3 
687 1114 1113 1 
688 1114 1634 3 
689 1634 1338 3 
690 1634 1633 1 
691 1338 1114 3 
692 1338 1337 1 
693 1351 2127 2 
694 1625 1629 2 
695 1850 2566 3 
696 2566 2565 1 
697 1630 1836 3 
698 1630 1629 1 
699 1630 2602 3 
700 1606 1630 3 
701 1606 1605 1 
702 2602 1606 3 
703 2602 2601 1 
704 2344 2850 3 
705 2344 2343 1 
706 2344 2608 3 
707 2624 2344 3 
708 2624 2623 1 
709 2608 2624 3 
710 2608 2607 1 
711 2608 2850 3 
712 2850 2624 3 
713 2850 2849 1 
714 1836 1606 3 
715 1836 1835 1 
716 1836 2602 3 
717 1352 1820 3 
718 1352 1351 1 
719 1402 1352 3 
720 1402 1401 1 
721 1820 1402 3 
722 1820 1819 1 
723 2815 2816 1 
724 3099 3100 1 
725 2862 3084 3 
726 2862 2861 1 
727 3084 2826 3 
728 3084 3083 1 
729 2826 2862 3 
730 2826 2825 1 
731 1867 1868 1 
732 1867 2371 2 
733 2363 2861 2 
734 2365 2595 2 
735 2595 2596 1 
736 2612 3180 3 
737 2358 2870 3 
738 2870 2869 1 
739 3644 3844 3 
740 3644 3643 1 
741 3380 3644 3 
742 3380 3379 1 
743 3844 3380 3 
744 3844 3843 1 
745 2364 2864 3 
746 2364 2363 1 
747 2364 2894 3 
748 3379 3895 2 
749 3591 3592 1 
750 4121 4607 2 
751 3375 3883 2 
752 3884 3124 3 
753 3884 3883 1 
754 2336 3884 3 
755 2336 2335 1 
756 2336 3874 3 
757 3874 3884 3 
758 3874 3873 1 
759 3124 2336 3 
760 3124 3123 1 
761 3124 3874 3 
762 4608 4590 3 
763 4608 4607 1 
764 4590 4842 3 
765 4590 4589 1 
766 5364 3872 3 
767 3872 3871 1 
768 4383 4889 2 
769 5351 5817 2 
770 113 341 2 
771 615 1431 2 
772 5597 5598 1 
773 5597 5637 2 
774 1079 1080 1 
775 1079 1355 2 
776 165 6143 2 
777 877 5875 2 
778 889 1371 2 
779 1372 1371 1 
780 6142 1372 3 
781 1601 1602 1 
782 1837 1838 1 
783 1131 1139 2 
784 1605 1869 2 
785 1617 2855 2 
786 3340 2616 3 
787 3340 3339 1 
788 2856 1858 3 
789 2856 2855 1 
790 2856 3340 3 
791 1849 1850 1 
792 1858 1857 1 
793 1858 3340 3 
794 1858 2616 3 
795 2616 2856 3 
796 2616 2615 1 
797 1589 1849 2 
798 1132 3134 3 
799 1132 1131 1 
800 2372 1132 3 
801 2372 2371 1 
802 3134 2372 3 
803 3134 3133 1 
804 1835 2115 2 
805 2390 2389 1 
806 1857 3099 2 
807 1847 2615 2 
808 2343 2369 2 
809 1848 1847 1 
810 2596 1848 3 
811 2611 3083 2 
812 2611 2612 1 
813 2869 3117 2 
814 3397 3843 2 
815 3896 3140 3 
816 3896 3895 1 
817 4146 3144 3 
818 4146 4145 1 
819 3376 4146 3 
820 3376 3375 1 
821 3144 3376 3 
822 3144 3143 1 
823 3862 3624 3 
824 3898 2866 3 
825 3898 3897 1 
826 3624 3623 1 
827 3869 4385 2 
828 3625 3626 1 
829 3625 3851 2 
830 4870 4370 3 
831 4870 4869 1 
832 3626 4370 3 
833 3626 4870 3 
834 3626 4104 3 
835 4370 4104 3 
836 4370 4369 1 
837 4104 4870 3 
838 4104 4103 1 
839 4120 5356 3 
840 4120 4119 1 
841 5356 5122 3 
842 5356 5355 1 
843 5122 4120 3 
844 5122 5121 1 
845 4882 5114 3 
846 4882 4881 1 
847 4638 4882 3 
848 4638 4637 1 
849 4638 4864 3 
850 4864 4882 3 
851 4864 4863 1 
852 4864 5114 3 
853 5114 4638 3 
854 5114 5113 1 
855 4384 4383 1 
856 4362 4384 3 
857 5626 5625 1 
858 6116 5626 3 
859 852 851 1 
860 1080 852 3 
861 342 102 3 
862 342 341 1 
863 342 878 3 
864 102 6086 3 
865 102 101 1 
866 102 878 3 
867 878 6086 3 
868 878 877 1 
869 6086 342 3 
870 6086 6085 1 
871 5598 5858 3 
872 1106 1432 3 
873 1106 1105 1 
874 1432 1356 3 
875 1432 1431 1 
876 1356 1106 3 
877 1356 1355 1 
878 5858 5857 1 
879 1381 1382 1 
880 1381 1897 2 
881 1651 1652 1 
882 1651 1917 2 
883 895 1873 2 
884 1855 1899 2 
885 1856 1366 3 
886 1856 1855 1 
887 1140 1856 3 
888 1140 1139 1 
889 1140 2896 3 
890 1366 1140 3 
891 1366 1365 1 
892 1366 2896 3 
893 2896 1856 3 
894 2896 2895 1 
895 2904 2390 3 
896 1590 2376 3 
897 1590 1589 1 
898 2903 3133 2 
899 2903 2904 1 
900 1862 1590 3 
901 1862 1861 1 
902 3418 2676 3 
903 3418 3417 1 
904 3418 3668 3 
905 3371 3372 1 
906 3162 3370 3 
907 3370 3369 1 
908 2877 3897 2 
909 2865 3901 2 
910 4924 3622 3 
911 4923 4924 1 
912 3622 3621 1 
913 3923 4923 2 
914 4851 4881 2 
915 4669 4670 1 
916 4369 4869 2 
917 4678 4677 1 
918 5394 4678 3 
919 4639 4669 2 
920 4397 5355 2 
921 5121 5143 2 
922 4409 4901 2 
923 5127 5361 2 
924 401 402 1 
925 181 401 2 
926 1874 1900 3 
927 1874 1873 1 
928 1918 1874 3 
929 1918 1917 1 
930 1900 1918 3 
931 1900 1899 1 
932 1358 1874 3 
933 1358 1357 1 
934 1358 1918 3 
935 1358 1900 3 
936 1898 1624 3 
937 1898 1897 1 
938 621 2173 2 
939 1907 2373 2 
940 2361 2362 1 
941 939 2361 2 
942 3399 3667 2 
943 3146 3130 3 
944 3146 3145 1 
945 3636 3146 3 
946 3636 3635 1 
947 3161 4141 2 
948 3161 3162 1 
949 3130 3636 3 
950 3130 3129 1 
951 3621 4421 2 
952 5393 5394 1 
953 4658 4160 3 
954 5144 5143 1 
955 4160 4159 1 
956 5154 5144 3 
957 5631 5632 1 
958 5395 5631 2 
959 5431 5653 2 
960 5432 5888 3 
961 5432 5431 1 
962 5634 5432 3 
963 5634 5633 1 
964 660 6150 3 
965 660 659 1 
966 660 5172 3 
967 660 6188 3 
968 6150 5172 3 
969 6150 6149 1 
970 409 6187 2 
971 1430 622 3 
972 1430 1429 1 
973 622 1144 3 
974 622 621 1 
975 1144 1430 3 
976 1144 1143 1 
977 953 1623 2 
978 1176 2130 3 
979 1176 1175 1 
980 1176 1644 3 
981 2148 1908 3 
982 2130 1644 3 
983 2130 2129 1 
984 1908 1907 1 
985 940 2130 3 
986 940 939 1 
987 940 1176 3 
988 1644 940 3 
989 1644 1643 1 
990 1938 2662 3 
991 1938 1937 1 
992 2662 2648 3 
993 2662 2661 1 
994 1895 2401 2 
995 2655 3151 2 
996 3886 2912 3 
997 2912 2911 1 
998 5428 4418 3 
999 5428 5427 1 
1000 4920 4418 3 
1001 4920 4919 1 
1002 4920 5428 3 
1003 4920 5402 3 
1004 4893 5153 2 
1005 5153 5154 1 
1006 5402 5428 3 
1007 5402 5401 1 
1008 4418 5402 3 
1009 4418 4417 1 
1010 4657 4658 1 
1011 4657 5167 2 
1012 4399 5617 2 
1013 4400 4888 3 
1014 4400 4399 1 
1015 4888 4878 3 
1016 4888 4887 1 
1017 4878 4400 3 
1018 4878 4877 1 
1019 5392 6168 3 
1020 5392 5391 1 
1021 6168 122 3 
1022 6168 6167 1 
1023 122 5392 3 
1024 122 121 1 
1025 172 914 3 
1026 172 171 1 
1027 172 430 3 
1028 172 674 3 
1029 674 430 3 
1030 674 673 1 
1031 391 649 2 
1032 2661 2667 2 
1033 2432 1706 3 
1034 2432 2431 1 
1035 1688 2432 3 
1036 1688 1687 1 
1037 2185 2193 2 
1038 1706 1688 3 
1039 1706 1705 1 
1040 2673 3165 2 
1041 2670 2192 3 
1042 2670 2669 1 
1043 2670 2674 3 
1044 3186 2670 3 
1045 3186 3185 1 
1046 2674 3186 3 
1047 2674 2673 1 
1048 2192 3186 3 
1049 2192 2191 1 
1050 2192 2674 3 
1051 3912 4172 3 
1052 3912 3911 1 
1053 4172 3396 3 
1054 4172 4171 1 
1055 3396 3912 3 
1056 3396 3395 1 
1057 4699 5173 2 
1058 4652 5168 3 
1059 4652 4651 1 
1060 5618 4652 3 
1061 5618 5617 1 
1062 5168 4894 3 
1063 5168 5167 1 
1064 5168 5618 3 
1065 5440 5940 3 
1066 5440 5439 1 
1067 5440 5914 3 
1068 5406 5405 1 
1069 5419 5939 2 
1070 5914 5162 3 
1071 5914 5913 1 
1072 5940 5914 3 
1073 5940 5939 1 
1074 6138 5406 3 
1075 6183 6184 1 
1076 1178 894 3 
1077 1178 1177 1 
1078 670 1178 3 
1079 670 669 1 
1080 894 670 3 
1081 894 893 1 
1082 914 674 3 
1083 914 913 1 
1084 673 951 2 
1085 425 447 2 
1086 952 460 3 
1087 952 951 1 
1088 155 6135 2 
1089 702 952 3 
1090 702 701 1 
1091 460 702 3 
1092 460 459 1 
1093 460 692 3 
1094 1435 1436 1 
1095 1435 2447 2 
1096 1687 1949 2 
1097 3166 2444 3 
1098 3166 3165 1 
1099 2687 2707 2 
1100 2435 2669 2 
1101 2197 2691 2 
1102 4167 4457 2 
1103 5183 5453 2 
1104 5184 5183 1 
1105 5426 5184 3 
1106 405 913 2 
1107 669 945 2 
1108 693 1177 2 
1109 5993 5994 1 
1110 459 935 2 
1111 936 682 3 
1112 936 935 1 
1113 672 936 3 
1114 672 671 1 
1115 672 710 3 
1116 710 936 3 
1117 710 709 1 
1118 682 672 3 
1119 682 681 1 
1120 682 710 3 
1121 1940 1939 1 
1122 1447 1693 2 
1123 671 921 2 
1124 1966 1965 1 
1125 1950 2440 3 
1126 1950 1949 1 
1127 2172 1966 3 
1128 2926 2442 3 
1129 2926 1950 3 
1130 2926 2925 1 
1131 3402 2900 3 
1132 2900 2899 1 
1133 1663 1664 1 
1134 1663 2721 2 
1135 2899 3673 2 
1136 4220 4672 3 
1137 4672 4671 1 
1138 3460 3459 1 
1139 4219 4693 2 
1140 4219 4220 1 
1141 3976 3460 3 
1142 4163 4164 1 
1143 3939 4163 2 
1144 3974 3738 3 
1145 3738 3737 1 
1146 4694 3686 3 
1147 4694 4693 1 
1148 4682 4212 3 
1149 4682 4681 1 
1150 4682 4694 3 
1151 4212 4694 3 
1152 4212 4211 1 
1153 3686 4212 3 
1154 3686 3685 1 
1155 3686 4682 3 
1156 4166 3430 3 
1157 4166 4165 1 
1158 3930 4166 3 
1159 3930 3929 1 
1160 4444 4458 3 
1161 4458 4457 1 
1162 3430 3930 3 
1163 3430 3429 1 
1164 4200 5648 3 
1165 4200 4199 1 
1166 4692 4200 3 
1167 4692 4691 1 
1168 5648 4692 3 
1169 5648 5647 1 
1170 4199 4933 2 
1171 5224 5223 1 
1172 5458 5224 3 
1173 424 423 1 
1174 6218 424 3 
1175 195 196 1 
1176 195 1383 2 
1177 194 193 1 
1178 196 194 3 
1179 450 6198 3 
1180 450 449 1 
1181 6198 5960 3 
1182 6198 6197 1 
1183 5960 450 3 
1184 5960 5959 1 
1185 428 694 3 
1186 5994 730 3 
1187 694 693 1 
1188 453 923 2 
1189 730 729 1 
1190 715 716 1 
1191 715 5959 2 
1192 454 6192 3 
1193 454 453 1 
1194 427 428 1 
1195 6197 6219 2 
1196 433 697 2 
1197 680 666 3 
1198 680 679 1 
1199 680 1186 3 
1200 666 434 3 
1201 666 665 1 
1202 434 680 3 
1203 434 433 1 
1204 434 1186 3 
1205 1186 666 3 
1206 1186 1185 1 
1207 679 6175 2 
1208 178 177 1 
1209 458 436 3 
1210 458 457 1 
1211 709 1461 2 
1212 1213 1719 2 
1213 1454 1453 1 
1214 1665 1666 1 
1215 1453 1665 2 
1216 2171 2172 1 
1217 3946 3450 3 
1218 3946 3945 1 
1219 3450 3958 3 
1220 3450 3449 1 
1221 3958 3946 3 
1222 3958 3957 1 
1223 2948 3958 3 
1224 2948 2947 1 
1225 2948 3450 3 
1226 2948 3946 3 
1227 3967 3977 2 
1228 3945 4671 2 
1229 3459 3957 2 
1230 3449 3941 2 
1231 3712 3928 3 
1232 3712 3711 1 
1233 3702 3701 1 
1234 3422 3702 3 
1235 3498 3690 3 
1236 3498 3497 1 
1237 4211 4465 2 
1238 3429 3693 2 
1239 3707 4443 2 
1240 4209 5451 2 
1241 4443 4444 1 
1242 4448 4210 3 
1243 4448 4447 1 
1244 4448 5442 3 
1245 4698 4448 3 
1246 4698 4697 1 
1247 4698 5442 3 
1248 5442 4210 3 
1249 5442 5441 1 
1250 4210 4698 3 
1251 4210 4209 1 
1252 5202 4710 3 
1253 5457 5458 1 
1254 4697 5457 2 
1255 5476 4434 3 
1256 5476 5475 1 
1257 4434 4184 3 
1258 4434 4433 1 
1259 5195 5196 1 
1260 5195 5219 2 
1261 4958 4434 3 
1262 4958 4957 1 
1263 4958 5476 3 
1264 4469 4470 1 
1265 4469 4703 2 
1266 4704 4980 3 
1267 4704 4703 1 
1268 4704 5954 3 
1269 5900 4704 3 
1270 5900 5899 1 
1271 5900 5954 3 
1272 423 5933 2 
1273 197 449 2 
1274 209 729 2 
1275 697 698 1 
1276 923 924 1 
1277 716 920 3 
1278 716 6220 3 
1279 698 924 3 
1280 698 920 3 
1281 924 920 3 
1282 6220 6219 1 
1283 200 698 3 
1284 200 716 3 
1285 200 924 3 
1286 228 6220 3 
1287 920 919 1 
1288 238 237 1 
1289 699 1215 2 
1290 457 6199 2 
1291 221 222 1 
1292 221 431 2 
1293 950 238 3 
1294 1487 1495 2 
1295 949 950 1 
1296 237 1493 2 
1297 1422 1496 3 
1298 1422 1421 1 
1299 1422 1480 3 
1300 1422 1462 3 
1301 1462 1496 3 
1302 1462 1461 1 
1303 1496 1480 3 
1304 1496 1495 1 
1305 1480 1462 3 
1306 1480 1479 1 
1307 1964 1720 3 
1308 1964 1963 1 
1309 1964 2206 3 
1310 1720 1719 1 
1311 1720 2206 3 
1312 1942 1964 3 
1313 1942 1941 1 
1314 1942 2206 3 
1315 1486 2236 3 
1316 1486 1485 1 
1317 1486 2730 3 
1318 1486 1736 3 
1319 2730 2236 3 
1320 2730 2729 1 
1321 1736 2730 3 
1322 1736 1735 1 
1323 2236 1736 3 
1324 2236 2235 1 
1325 2704 3424 3 
1326 2704 2703 1 
1327 3226 2704 3 
1328 3226 3225 1 
1329 3226 3424 3 
1330 2946 2704 3 
1331 2946 2945 1 
1332 2946 3226 3 
1333 3424 2946 3 
1334 3424 3423 1 
1335 2445 2446 1 
1336 2445 3207 2 
1337 3968 3967 1 
1338 3926 3968 3 
1339 3421 3422 1 
1340 3421 3711 2 
1341 3943 3944 1 
1342 3933 3959 2 
1343 3465 3749 2 
1344 3466 3762 3 
1345 3466 3465 1 
1346 3761 5441 2 
1347 4988 4438 3 
1348 4988 4987 1 
1349 4474 4206 3 
1350 4474 4473 1 
1351 4474 4988 3 
1352 4206 4988 3 
1353 4206 4205 1 
1354 4438 4206 3 
1355 4438 4437 1 
1356 4438 4474 3 
1357 5236 4454 3 
1358 5236 5235 1 
1359 465 6239 2 
1360 232 466 3 
1361 232 231 1 
1362 5182 4960 3 
1363 463 971 2 
1364 480 464 3 
1365 971 972 1 
1366 464 463 1 
1367 6230 498 3 
1368 6230 6229 1 
1369 1491 1735 2 
1370 1991 1992 1 
1371 1460 2216 3 
1372 1460 1459 1 
1373 1460 2462 3 
1374 1477 1991 2 
1375 2216 1982 3 
1376 2216 2215 1 
1377 2216 2230 3 
1378 1982 1460 3 
1379 1982 1981 1 
1380 1982 2462 3 
1381 2230 2462 3 
1382 2461 2462 1 
1383 2966 2710 3 
1384 2966 2965 1 
1385 2965 2969 2 
1386 3472 2460 3 
1387 3472 3471 1 
1388 2232 2460 3 
1389 2232 2231 1 
1390 2232 2700 3 
1391 2232 3472 3 
1392 2460 2700 3 
1393 2460 2459 1 
1394 2700 3472 3 
1395 2700 2699 1 
1396 2450 3208 3 
1397 2450 2449 1 
1398 2190 3984 3 
1399 2190 2450 3 
1400 2190 2189 1 
1401 3984 2450 3 
1402 3984 3983 1 
1403 3208 2190 3 
1404 3208 3984 3 
1405 3208 3207 1 
1406 3979 3983 2 
1407 3473 3474 1 
1408 3473 4193 2 
1409 3474 3980 3 
1410 3980 3979 1 
1411 4194 4198 3 
1412 4194 4193 1 
1413 4194 4208 3 
1414 4208 4198 3 
1415 4208 4207 1 
1416 4198 3960 3 
1417 4198 4197 1 
1418 3960 4194 3 
1419 3960 3959 1 
1420 3960 4208 3 
1421 4464 3466 3 
1422 4464 4463 1 
1423 3762 4464 3 
1424 3762 3761 1 
1425 5227 5235 2 
1426 4969 4987 2 
1427 4970 4260 3 
1428 4970 4969 1 
1429 4479 4713 2 
1430 4982 4992 3 
1431 4982 4981 1 
1432 4714 4982 3 
1433 4714 4713 1 
1434 4992 4714 3 
1435 4992 4991 1 
1436 4733 4734 1 
1437 4733 5025 2 
1438 5245 5246 1 
1439 5245 5961 2 
1440 231 5973 2 
1441 5246 5248 3 
1442 241 5709 2 
1443 5181 5182 1 
1444 5181 6249 2 
1445 4960 4959 1 
1446 504 6238 3 
1447 504 503 1 
1448 438 6238 3 
1449 438 437 1 
1450 438 504 3 
1451 438 6250 3 
1452 6250 504 3 
1453 6250 6249 1 
1454 6238 6250 3 
1455 6238 6237 1 
1456 734 1004 3 
1457 734 733 1 
1458 734 972 3 
1459 1004 750 3 
1460 1004 1003 1 
1461 6026 5982 3 
1462 6026 6025 1 
1463 750 734 3 
1464 750 749 1 
1465 7 497 2 
1466 987 988 1 
1467 987 6229 2 
1468 5982 508 3 
1469 5982 5981 1 
1470 508 254 3 
1471 508 507 1 
1472 508 6026 3 
1473 254 5982 3 
1474 254 253 1 
1475 254 6026 3 
1476 972 1004 3 
1477 476 972 3 
1478 476 750 3 
1479 731 749 2 
1480 260 259 1 
1481 260 476 3 
1482 988 260 3 
1483 1475 1476 1 
1484 1247 1475 2 
1485 1478 1477 1 
1486 1474 1478 3 
1487 1473 1474 1 
1488 1465 1466 1 
1489 1465 1473 2 
1490 1962 2250 3 
1491 1962 1961 1 
1492 2710 2990 3 
1493 2710 2709 1 
1494 2990 2966 3 
1495 2990 2989 1 
1496 4480 4970 3 
1497 4480 4479 1 
1498 3774 4260 3 
1499 3774 3773 1 
1500 3774 4970 3 
1501 3774 4480 3 
1502 4260 4480 3 
1503 4260 4259 1 
1504 4259 4721 2 
1505 4990 5222 3 
1506 4990 4989 1 
1507 5222 4722 3 
1508 5222 5221 1 
1509 5252 5251 1 
1510 4734 5252 3 
1511 4284 5222 3 
1512 4284 4283 1 
1513 4284 4722 3 
1514 4284 4990 3 
1515 4722 4990 3 
1516 4722 4721 1 
1517 5504 4752 3 
1518 5504 5503 1 
1519 4752 5790 3 
1520 4752 4751 1 
1521 5248 5247 1 
1522 5487 5991 2 
1523 5709 5710 1 
1524 5974 226 3 
1525 5974 5973 1 
1526 242 5974 3 
1527 242 226 3 
1528 242 241 1 
1529 236 242 3 
1530 236 5974 3 
1531 236 235 1 
1532 226 236 3 
1533 226 225 1 
1534 225 6025 2 
1535 5720 192 3 
1536 5720 5719 1 
1537 264 192 3 
1538 264 263 1 
1539 264 5720 3 
1540 192 8 3 
1541 192 191 1 
1542 8 264 3 
1543 8 7 1 
1544 8 5720 3 
1545 475 476 1 
1546 243 475 2 
1547 247 5753 2 
1548 6 5 1 
1549 3 747 2 
1550 736 1224 3 
1551 736 735 1 
1552 1224 1730 3 
1553 1224 1223 1 
1554 2253 2254 1 
1555 2255 2751 2 
1556 2752 2260 3 
1557 2260 2259 1 
1558 2751 2752 1 
1559 3015 3525 2 
1560 3812 3016 3 
1561 3812 3811 1 
1562 3491 3492 1 
1563 3491 4485 2 
1564 3505 3765 2 
1565 3798 3812 3 
1566 3798 3797 1 
1567 4530 4462 3 
1568 4530 4529 1 
1569 4002 4462 3 
1570 4002 4001 1 
1571 4002 4530 3 
1572 4002 4748 3 
1573 4462 4748 3 
1574 4462 4461 1 
1575 4748 4530 3 
1576 4748 4747 1 
1577 4235 4236 1 
1578 4235 4461 2 
1579 5493 5494 1 
1580 5763 6245 2 
1581 14 6228 3 
1582 14 13 1 
1583 14 6226 3 
1584 6228 5480 3 
1585 6228 6227 1 
1586 6226 5480 3 
1587 6226 6225 1 
1588 6226 6228 3 
1589 5480 14 3 
1590 5480 5479 1 
1591 5488 5487 1 
1592 30 6016 3 
1593 30 29 1 
1594 30 5516 3 
1595 520 30 3 
1596 520 519 1 
1597 520 5516 3 
1598 6016 520 3 
1599 6016 6015 1 
1600 5516 6016 3 
1601 5516 5515 1 
1602 250 6008 3 
1603 250 249 1 
1604 250 1006 3 
1605 6008 6224 3 
1606 6008 6007 1 
1607 1006 6224 3 
1608 1006 1005 1 
1609 1006 6008 3 
1610 266 265 1 
1611 45 5999 2 
1612 45 46 1 
1613 6065 6066 1 
1614 489 519 2 
1615 473 525 2 
1616 487 6041 2 
1617 782 1276 3 
1618 782 781 1 
1619 1276 1030 3 
1620 1276 1275 1 
1621 1030 782 3 
1622 1030 1029 1 
1623 490 5754 3 
1624 490 489 1 
1625 46 5730 3 
1626 5518 490 3 
1627 5518 5517 1 
1628 5730 5729 1 
1629 1012 782 3 
1630 1012 1011 1 
1631 1012 1030 3 
1632 1012 1276 3 
1633 525 526 1 
1634 5754 5518 3 
1635 5754 5753 1 
1636 1011 1483 2 
1637 781 1523 2 
1638 516 284 3 
1639 764 310 3 
1640 233 269 2 
1641 269 270 1 
1642 502 1022 3 
1643 502 516 3 
1644 284 283 1 
1645 284 502 3 
1646 48 516 3 
1647 48 284 3 
1648 48 764 3 
1649 270 522 3 
1650 270 768 3 
1651 270 526 3 
1652 722 1510 3 
1653 722 721 1 
1654 1510 1260 3 
1655 1510 1509 1 
1656 1244 778 3 
1657 1244 1243 1 
1658 1239 1240 1 
1659 485 1239 2 
1660 711 721 2 
1661 515 516 1 
1662 515 1263 2 
1663 1013 1241 2 
1664 509 1243 2 
1665 1770 1270 3 
1666 1270 1269 1 
1667 1780 1034 3 
1668 1780 1779 1 
1669 1245 1246 1 
1670 983 1245 2 
1671 1279 2019 2 
1672 1744 2024 3 
1673 2024 2023 1 
1674 1743 1744 1 
1675 1525 1765 2 
1676 1280 1786 3 
1677 1280 1279 1 
1678 2011 2741 2 
1679 2741 2742 1 
1680 1538 2506 3 
1681 2280 2279 1 
1682 2280 2492 3 
1683 2280 2786 3 
1684 2742 1752 3 
1685 1752 1751 1 
1686 2508 2276 3 
1687 2508 2507 1 
1688 2508 2754 3 
1689 2254 2280 3 
1690 2254 2786 3 
1691 2506 2505 1 
1692 1518 2492 3 
1693 1518 2254 3 
1694 1518 2786 3 
1695 2481 2482 1 
1696 2481 3017 2 
1697 3017 3018 1 
1698 2018 2508 3 
1699 2018 2017 1 
1700 2018 2754 3 
1701 2507 2755 2 
1702 3483 3741 2 
1703 2224 2972 3 
1704 2224 2223 1 
1705 2251 2489 2 
1706 3510 3010 3 
1707 3510 3509 1 
1708 3986 3510 3 
1709 3986 3985 1 
1710 3010 3986 3 
1711 3010 3009 1 
1712 2998 2514 3 
1713 2998 2997 1 
1714 3484 2998 3 
1715 3484 3483 1 
1716 2514 3484 3 
1717 2514 2513 1 
1718 2972 2242 3 
1719 2972 2971 1 
1720 3227 3303 2 
1721 3261 3545 2 
1722 2496 2536 3 
1723 2495 2496 1 
1724 3522 3521 1 
1725 3303 3304 1 
1726 2536 2535 1 
1727 3278 4258 3 
1728 3278 3522 3 
1729 3030 3756 3 
1730 3030 3029 1 
1731 3030 3278 3 
1732 3756 3004 3 
1733 3756 3755 1 
1734 3277 3278 1 
1735 3269 3270 1 
1736 2783 3269 2 
1737 3004 3030 3 
1738 3004 3003 1 
1739 3768 3764 3 
1740 3768 3767 1 
1741 3778 3768 3 
1742 3778 3777 1 
1743 3764 3778 3 
1744 3764 3763 1 
1745 3990 3989 1 
1746 3543 3811 2 
1747 4285 4286 1 
1748 4017 4285 2 
1749 3501 3539 2 
1750 3539 3540 1 
1751 4245 4529 2 
1752 4271 4743 2 
1753 4238 4228 3 
1754 4228 4227 1 