ITEM: TIMESTEP
26840
ITEM: NUMBER OF ENTRIES
5814
ITEM: BOX BOUNDS pp pp ff
0.0000000000000000e+00 7.2168784000000002e+01
0.0000000000000000e+00 7.2168784000000002e+01
0.0000000000000000e+00 1.2000000000000000e+01
ITEM: ENTRIES index c_1[1] c_1[2] c_1[3]
1 251 252 1 
2 9 10 1 
3 271 272 1 
4 6017 6018 1 
5 6025 6026 1 
6 1239 1240 1 
7 487 488 1 
8 485 1239 2 
9 269 270 1 
10 233 269 2 
11 1280 1786 3 
12 1280 1279 1 
13 1508 1280 3 
14 1508 1507 1 
15 1508 1786 3 
16 1786 1008 3 
17 1786 1785 1 
18 1008 1280 3 
19 1008 1007 1 
20 1008 1508 3 
21 1537 1538 1 
22 1767 1768 1 
23 2496 2536 3 
24 2536 2535 1 
25 2252 2732 3 
26 2252 2251 1 
27 2252 2762 3 
28 1504 2252 3 
29 1504 1503 1 
30 2762 1504 3 
31 2762 2761 1 
32 2740 2739 1 
33 2732 1504 3 
34 2732 2731 1 
35 2732 2762 3 
36 2504 2740 3 
37 2778 3006 3 
38 2778 2777 1 
39 3002 2778 3 
40 3002 3001 1 
41 3002 3006 3 
42 3006 2992 3 
43 3006 3005 1 
44 2992 2778 3 
45 2992 2991 1 
46 2992 3002 3 
47 3303 3304 1 
48 3503 3504 1 
49 3511 3512 1 
50 3512 3526 3 
51 3526 3525 1 
52 3281 3282 1 
53 3761 3762 1 
54 4500 4276 3 
55 4500 4499 1 
56 4276 4048 3 
57 4276 4275 1 
58 4048 4500 3 
59 4048 4047 1 
60 3771 3772 1 
61 3771 4723 2 
62 4275 5525 2 
63 5525 5526 1 
64 4757 4758 1 
65 5239 5240 1 
66 5743 5744 1 
67 4516 4780 3 
68 4516 4515 1 
69 250 6008 3 
70 250 249 1 
71 6231 6232 1 
72 6008 6224 3 
73 6008 6007 1 
74 29 251 2 
75 6022 248 3 
76 6022 6021 1 
77 248 12 3 
78 248 247 1 
79 12 34 3 
80 12 11 1 
81 12 6022 3 
82 34 248 3 
83 34 33 1 
84 34 6022 3 
85 5765 6013 2 
86 6013 6014 1 
87 33 501 2 
88 501 502 1 
89 257 6241 2 
90 257 258 1 
91 6241 6242 1 
92 1020 1002 3 
93 1020 1019 1 
94 536 1020 3 
95 536 535 1 
96 1002 536 3 
97 1002 1001 1 
98 1042 778 3 
99 778 777 1 
100 1041 1042 1 
101 2531 2731 2 
102 2539 2540 1 
103 2512 2530 3 
104 2512 2522 3 
105 2772 2530 3 
106 2772 2771 1 
107 2532 2772 3 
108 2532 2531 1 
109 2784 2783 1 
110 3290 2784 3 
111 3015 3525 2 
112 3539 3540 1 
113 3016 3015 1 
114 3812 3016 3 
115 4264 5036 3 
116 4264 4263 1 
117 4264 4534 3 
118 6245 6246 1 
119 4261 4267 2 
120 6011 6012 1 
121 6233 6234 1 
122 247 5753 2 
123 11 6051 2 
124 23 24 1 
125 6051 6052 1 
126 524 6036 3 
127 767 768 1 
128 767 1043 2 
129 1044 1048 3 
130 1044 1043 1 
131 1048 540 3 
132 1048 1047 1 
133 1274 1018 3 
134 1274 1273 1 
135 1534 1274 3 
136 1534 1533 1 
137 1018 1040 3 
138 1018 1017 1 
139 1018 1534 3 
140 1040 1274 3 
141 1040 1039 1 
142 1040 1534 3 
143 1528 1284 3 
144 1528 1527 1 
145 1283 1521 2 
146 1521 1522 1 
147 2540 2286 3 
148 2313 2775 2 
149 2313 2314 1 
150 2522 2532 3 
151 2522 2772 3 
152 2530 2532 3 
153 2530 2529 1 
154 3272 3034 3 
155 3272 3271 1 
156 3272 3538 3 
157 3264 3538 3 
158 3264 3263 1 
159 3264 3272 3 
160 3034 3264 3 
161 3034 3033 1 
162 3538 3034 3 
163 3538 3537 1 
164 3263 3535 2 
165 3790 3534 3 
166 3790 3789 1 
167 3534 3316 3 
168 3534 3533 1 
169 2783 3269 2 
170 3316 2524 3 
171 3316 3315 1 
172 3316 3790 3 
173 2524 3534 3 
174 2524 2523 1 
175 2524 3790 3 
176 3797 3798 1 
177 3540 4524 3 
178 4524 4523 1 
179 4295 4296 1 
180 4746 5002 3 
181 5002 5001 1 
182 5539 5540 1 
183 6036 6035 1 
184 542 541 1 
185 6029 6030 1 
186 540 1044 3 
187 540 539 1 
188 295 815 2 
189 815 816 1 
190 2062 1528 3 
191 2062 2061 1 
192 1284 2062 3 
193 1284 1283 1 
194 1542 1792 3 
195 1291 1292 1 
196 1541 1542 1 
197 1792 2308 3 
198 1792 1791 1 
199 1282 1281 1 
200 1772 1282 3 
201 1281 1541 2 
202 1771 1772 1 
203 1795 2053 2 
204 1515 1516 1 
205 2776 2044 3 
206 2776 2775 1 
207 2044 2564 3 
208 2044 2043 1 
209 2571 2572 1 
210 3041 3042 1 
211 3031 3309 2 
212 3309 3310 1 
213 3048 3548 3 
214 3048 3047 1 
215 3548 3284 3 
216 3548 3547 1 
217 3536 3032 3 
218 3536 3535 1 
219 3284 3048 3 
220 3284 3283 1 
221 3032 3242 3 
222 3032 3031 1 
223 3242 3536 3 
224 3242 3241 1 
225 3776 3775 1 
226 4302 5292 3 
227 4301 4302 1 
228 5292 5291 1 
229 4305 4306 1 
230 5813 5814 1 
231 523 524 1 
232 5779 5780 1 
233 6030 542 3 
234 322 6044 3 
235 322 321 1 
236 6044 538 3 
237 6044 6043 1 
238 538 322 3 
239 538 537 1 
240 314 798 3 
241 796 800 3 
242 796 795 1 
243 1290 1792 3 
244 1290 1289 1 
245 2308 1290 3 
246 2308 2307 1 
247 1333 1334 1 
248 1333 2307 2 
249 1830 1829 1 
250 2053 2054 1 
251 1571 1572 1 
252 1571 1781 2 
253 1797 2021 2 
254 1796 2564 3 
255 1796 1795 1 
256 1796 2776 3 
257 1796 2044 3 
258 2564 2776 3 
259 2564 2563 1 
260 2801 2802 1 
261 2301 2302 1 
262 3310 3292 3 
263 3292 3291 1 
264 2821 3317 2 
265 4051 4052 1 
266 3332 3776 3 
267 3331 3332 1 
268 4059 4060 1 
269 4059 4065 2 
270 5049 5050 1 
271 4053 4305 2 
272 4315 4316 1 
273 4804 5296 3 
274 4085 4086 1 
275 5296 5295 1 
276 5048 5792 3 
277 5048 5047 1 
278 4803 4804 1 
279 5566 5048 3 
280 5566 5565 1 
281 5792 5566 3 
282 5792 5791 1 
283 5798 5797 1 
284 4574 5798 3 
285 5302 5301 1 
286 5814 5302 3 
287 6061 6062 1 
288 18 5788 3 
289 294 52 3 
290 294 293 1 
291 294 5548 3 
292 5548 6064 3 
293 5548 5547 1 
294 52 6064 3 
295 52 51 1 
296 52 5548 3 
297 6064 294 3 
298 6064 6063 1 
299 5788 5787 1 
300 798 797 1 
301 313 314 1 
302 313 559 2 
303 335 336 1 
304 820 856 3 
305 856 855 1 
306 1570 1554 3 
307 1570 1569 1 
308 1570 2542 3 
309 1561 1562 1 
310 1340 1830 3 
311 1562 1798 3 
312 1798 1797 1 
313 1821 1822 1 
314 2291 2353 2 
315 2353 2354 1 
316 2823 2824 1 
317 2035 2036 1 
318 3051 3052 1 
319 3318 3317 1 
320 3794 3318 3 
321 3068 3298 3 
322 3068 3067 1 
323 3305 3581 2 
324 3793 3794 1 
325 4066 3306 3 
326 4066 4065 1 
327 3802 3801 1 
328 4318 4326 3 
329 4318 4317 1 
330 4063 4064 1 
331 4536 4542 3 
332 4073 4074 1 
333 4542 4541 1 
334 4535 4536 1 
335 4547 4805 2 
336 4813 5565 2 
337 5816 5815 1 
338 4573 4574 1 
339 5812 5811 1 
340 5786 5812 3 
341 74 5816 3 
342 6083 6084 1 
343 5819 6083 2 
344 5821 5822 1 
345 5552 5542 3 
346 5552 5551 1 
347 5820 5552 3 
348 5820 5819 1 
349 5542 5820 3 
350 5542 5541 1 
351 6079 6080 1 
352 6095 6096 1 
353 77 78 1 
354 822 821 1 
355 819 820 1 
356 825 826 1 
357 336 822 3 
358 1083 1084 1 
359 1083 1563 2 
360 1071 1072 1 
361 828 1832 3 
362 828 827 1 
363 1074 828 3 
364 1074 1073 1 
365 1832 1074 3 
366 1832 1831 1 
367 1077 1078 1 
368 1077 1367 2 
369 1073 1339 2 
370 2815 2816 1 
371 3038 3037 1 
372 2045 2046 1 
373 2582 2824 3 
374 2824 3038 3 
375 2354 2582 3 
376 2354 3038 3 
377 2557 2558 1 
378 2323 2324 1 
379 2323 2557 2 
380 3301 3302 1 
381 3298 3564 3 
382 3298 3297 1 
383 3619 3620 1 
384 3813 3814 1 
385 3607 3608 1 
386 3607 3813 2 
387 3595 3596 1 
388 3595 4107 2 
389 4545 4546 1 
390 3552 3586 3 
391 3552 3551 1 
392 3072 3552 3 
393 3072 3071 1 
394 3586 3072 3 
395 3586 3585 1 
396 4074 3802 3 
397 3591 3592 1 
398 4322 3572 3 
399 4322 4321 1 
400 3816 4072 3 
401 3816 3815 1 
402 3816 4322 3 
403 3572 4072 3 
404 3572 3571 1 
405 3572 3816 3 
406 4072 4322 3 
407 4072 4071 1 
408 4577 4578 1 
409 5308 5086 3 
410 5308 5307 1 
411 5051 5052 1 
412 5051 5573 2 
413 5573 5574 1 
414 5327 5328 1 
415 91 5327 2 
416 92 91 1 
417 5563 5564 1 
418 5563 5811 2 
419 6057 6058 1 
420 315 316 1 
421 315 6057 2 
422 581 582 1 
423 843 844 1 
424 1341 1342 1 
425 1341 1831 2 
426 1367 1368 1 
427 833 834 1 
428 2077 2078 1 
429 847 848 1 
430 847 2077 2 
431 2063 2064 1 
432 2082 2081 1 
433 2816 2082 3 
434 2581 2582 1 
435 1600 1599 1 
436 2081 2089 2 
437 2320 1600 3 
438 3037 3095 2 
439 2560 2559 1 
440 2832 2560 3 
441 2585 2586 1 
442 2349 2585 2 
443 3061 3062 1 
444 4108 4107 1 
445 3620 4108 3 
446 3343 3344 1 
447 3343 3353 2 
448 4853 4854 1 
449 4321 4351 2 
450 5346 4604 3 
451 4604 4603 1 
452 5061 5062 1 
453 4297 4298 1 
454 5065 5066 1 
455 5345 5346 1 
456 5079 5345 2 
457 5079 5080 1 
458 4835 5065 2 
459 4836 5098 3 
460 4836 4835 1 
461 5078 4836 3 
462 5078 5077 1 
463 5561 5562 1 
464 5098 5078 3 
465 5098 5097 1 
466 6104 92 3 
467 6103 6104 1 
468 832 586 3 
469 586 585 1 
470 1347 1348 1 
471 1103 1104 1 
472 1091 1103 2 
473 596 1092 3 
474 1092 1091 1 
475 1351 1352 1 
476 1853 1854 1 
477 2845 2846 1 
478 2845 2863 2 
479 2342 2864 3 
480 2342 2341 1 
481 2342 2364 3 
482 2864 2894 3 
483 2864 2863 1 
484 2894 2342 3 
485 2894 2893 1 
486 2101 2102 1 
487 2101 2893 2 
488 3341 3342 1 
489 2335 2336 1 
490 3091 3335 2 
491 3124 3884 3 
492 4337 4338 1 
493 3884 3883 1 
494 3611 3837 2 
495 3837 3838 1 
496 3863 3864 1 
497 3593 3863 2 
498 3088 2842 3 
499 3088 3087 1 
500 2583 2584 1 
501 3833 3834 1 
502 3833 4571 2 
503 3851 3852 1 
504 4355 4603 2 
505 4323 4324 1 
506 4591 4592 1 
507 5115 5116 1 
508 5112 106 3 
509 5112 5111 1 
510 5112 5874 3 
511 5112 5862 3 
512 5862 5874 3 
513 5862 5861 1 
514 106 5862 3 
515 106 105 1 
516 6086 102 3 
517 6086 6085 1 
518 115 857 2 
519 876 1350 3 
520 876 875 1 
521 1350 858 3 
522 1350 1349 1 
523 858 876 3 
524 858 857 1 
525 1356 1106 3 
526 1106 1105 1 
527 1359 1360 1 
528 1360 1112 3 
529 634 1614 3 
530 633 634 1 
531 1401 1402 1 
532 1865 1866 1 
533 1618 2128 3 
534 1618 1617 1 
535 1618 2092 3 
536 1618 2136 3 
537 2092 2128 3 
538 2092 2091 1 
539 1861 1862 1 
540 2136 2092 3 
541 2136 2135 1 
542 2128 2136 3 
543 2128 2127 1 
544 3339 3340 1 
545 2131 2132 1 
546 2131 2135 2 
547 2364 2864 3 
548 2364 2363 1 
549 2364 2894 3 
550 2825 3339 2 
551 2619 2620 1 
552 2619 2853 2 
553 3371 3372 1 
554 3843 3844 1 
555 3375 3883 2 
556 3123 3124 1 
557 3594 3593 1 
558 3366 3594 3 
559 3873 3874 1 
560 3873 4363 2 
561 4346 4345 1 
562 4592 5354 3 
563 5354 5353 1 
564 4593 4594 1 
565 4599 4600 1 
566 4599 4875 2 
567 5347 5348 1 
568 371 372 1 
569 102 342 3 
570 102 101 1 
571 5881 6109 2 
572 6109 6110 1 
573 653 654 1 
574 653 1147 2 
575 1133 1134 1 
576 1614 1613 1 
577 621 622 1 
578 2638 2637 1 
579 1866 2638 3 
580 1836 1835 1 
581 1835 2115 2 
582 1642 1641 1 
583 2115 2116 1 
584 2362 1642 3 
585 3179 3180 1 
586 2853 2854 1 
587 3105 3106 1 
588 3105 3857 2 
589 3107 3108 1 
590 2645 2646 1 
591 2645 3107 2 
592 3144 3376 3 
593 3144 3143 1 
594 4146 3144 3 
595 4146 4145 1 
596 3910 3909 1 
597 3372 3910 3 
598 3376 4146 3 
599 3376 3375 1 
600 3624 3623 1 
601 3862 3624 3 
602 3625 3626 1 
603 3841 3842 1 
604 4364 4363 1 
605 4084 4364 3 
606 5103 5104 1 
607 4873 5353 2 
608 4629 4630 1 
609 4629 5635 2 
610 5878 5362 3 
611 5362 5361 1 
612 5598 5858 3 
613 5858 5857 1 
614 5871 5872 1 
615 5597 5598 1 
616 1380 142 3 
617 142 141 1 
618 615 616 1 
619 627 628 1 
620 139 140 1 
621 879 880 1 
622 1429 1430 1 
623 1375 1376 1 
624 1137 1138 1 
625 1137 1375 2 
626 1385 1881 2 
627 2626 1386 3 
628 2626 2625 1 
629 1386 2112 3 
630 1386 1385 1 
631 2112 2626 3 
632 2112 2111 1 
633 2371 2372 1 
634 2361 2362 1 
635 2625 2647 2 
636 2647 2648 1 
637 2887 2888 1 
638 3898 2866 3 
639 2877 3897 2 
640 3135 3909 2 
641 3135 3136 1 
642 3897 3898 1 
643 2878 2877 1 
644 3136 2878 3 
645 2866 2865 1 
646 2865 3901 2 
647 3891 3892 1 
648 3642 3902 3 
649 3642 3641 1 
650 3924 3642 3 
651 3924 3923 1 
652 3902 3618 3 
653 3902 3901 1 
654 3902 3924 3 
655 3618 3642 3 
656 3618 3617 1 
657 3618 3924 3 
658 5625 5626 1 
659 5915 5916 1 
660 6121 6122 1 
661 383 1399 2 
662 413 414 1 
663 413 1429 2 
664 1143 1144 1 
665 1381 1382 1 
666 1653 1654 1 
667 2130 1644 3 
668 2130 2129 1 
669 1882 2174 3 
670 1882 1881 1 
671 1882 2374 3 
672 1882 2152 3 
673 2152 2374 3 
674 2152 2151 1 
675 2174 2152 3 
676 2174 2173 1 
677 2374 2174 3 
678 2374 2373 1 
679 1391 1392 1 
680 2648 2662 3 
681 2662 2661 1 
682 2872 2871 1 
683 2402 2872 3 
684 3389 3390 1 
685 3915 3916 1 
686 3613 4633 2 
687 4421 4422 1 
688 3614 3613 1 
689 4116 3614 3 
690 4932 4931 1 
691 4406 4932 3 
692 4660 4659 1 
693 3892 4660 3 
694 4643 4644 1 
695 5355 5356 1 
696 4155 4156 1 
697 4155 4643 2 
698 5883 5884 1 
699 6151 6152 1 
700 151 152 1 
701 151 641 2 
702 641 642 1 
703 384 132 3 
704 384 383 1 
705 902 384 3 
706 902 901 1 
707 132 902 3 
708 132 131 1 
709 1151 1152 1 
710 6148 416 3 
711 6148 6147 1 
712 416 144 3 
713 416 415 1 
714 415 421 2 
715 1163 1164 1 
716 1644 940 3 
717 1644 1643 1 
718 940 2130 3 
719 940 939 1 
720 1415 1416 1 
721 2661 2667 2 
722 1924 1923 1 
723 1924 2936 3 
724 2412 1924 3 
725 2871 2907 2 
726 2907 2908 1 
727 2934 3174 3 
728 2934 2933 1 
729 3174 2656 3 
730 3174 3173 1 
731 2656 2934 3 
732 2656 2655 1 
733 3682 3681 1 
734 3658 3880 3 
735 3880 3879 1 
736 3390 4412 3 
737 3916 3678 3 
738 3678 3677 1 
739 4877 4931 2 
740 4910 4922 3 
741 5679 5680 1 
742 4196 4195 1 
743 4908 4948 3 
744 4922 4196 3 
745 4922 4948 3 
746 5925 5926 1 
747 5447 5448 1 
748 5185 5447 2 
749 5926 5642 3 
750 4866 5164 3 
751 4866 4865 1 
752 5412 378 3 
753 5412 5411 1 
754 5412 6156 3 
755 6156 112 3 
756 6156 6155 1 
757 378 6156 3 
758 378 377 1 
759 112 378 3 
760 112 111 1 
761 112 5412 3 
762 6153 6154 1 
763 5411 6153 2 
764 1169 1170 1 
765 946 945 1 
766 448 946 3 
767 931 932 1 
768 1673 1674 1 
769 1156 2162 3 
770 2162 2161 1 
771 2414 1672 3 
772 2414 2413 1 
773 2916 2414 3 
774 2916 2915 1 
775 1672 2184 3 
776 1672 1671 1 
777 1672 2916 3 
778 2411 2412 1 
779 2901 2902 1 
780 2691 2692 1 
781 2684 2683 1 
782 2902 2684 3 
783 2663 2664 1 
784 2663 2683 2 
785 3632 3682 3 
786 2657 2658 1 
787 4153 4154 1 
788 4168 4428 3 
789 4168 4167 1 
790 3377 3378 1 
791 4134 4133 1 
792 4428 4674 3 
793 4428 4427 1 
794 4428 4430 3 
795 3378 4134 3 
796 4674 4168 3 
797 4674 4673 1 
798 4401 4402 1 
799 4415 4416 1 
800 4415 5163 2 
801 4399 4400 1 
802 4699 5173 2 
803 4400 4878 3 
804 4878 4877 1 
805 4920 4418 3 
806 4920 4919 1 
807 4920 5428 3 
808 4920 5402 3 
809 5402 5428 3 
810 5402 5401 1 
811 4418 5402 3 
812 4418 4417 1 
813 5428 4418 3 
814 5428 5427 1 
815 5174 5446 3 
816 5174 5173 1 
817 4919 5423 2 
818 5186 5174 3 
819 5186 5185 1 
820 170 169 1 
821 914 674 3 
822 674 673 1 
823 426 425 1 
824 655 656 1 
825 936 682 3 
826 936 935 1 
827 672 936 3 
828 672 671 1 
829 672 710 3 
830 932 426 3 
831 1155 1913 2 
832 1155 1156 1 
833 1913 1914 1 
834 1183 1184 1 
835 1165 1166 1 
836 1165 1925 2 
837 1926 1925 1 
838 2466 1926 3 
839 1921 1922 1 
840 2185 2186 1 
841 2185 2193 2 
842 1922 1894 3 
843 1894 1893 1 
844 2687 2688 1 
845 2184 2414 3 
846 2184 2183 1 
847 2184 2916 3 
848 2665 2666 1 
849 2665 2915 2 
850 2403 2404 1 
851 3189 3190 1 
852 3679 3680 1 
853 3631 3679 2 
854 3631 3632 1 
855 3475 3476 1 
856 3927 3928 1 
857 3661 3927 2 
858 4430 4168 3 
859 4430 4429 1 
860 4430 4674 3 
861 4912 4700 3 
862 4700 4699 1 
863 4655 4656 1 
864 4655 4917 2 
865 4911 4912 1 
866 5446 5186 3 
867 5446 5445 1 
868 5177 5178 1 
869 5177 5445 2 
870 5178 5404 3 
871 5413 5659 2 
872 5672 5670 3 
873 5670 5669 1 
874 5671 5672 1 
875 6218 424 3 
876 943 944 1 
877 445 943 2 
878 459 935 2 
879 216 472 3 
880 913 914 1 
881 405 913 2 
882 682 672 3 
883 682 681 1 
884 682 710 3 
885 710 936 3 
886 710 709 1 
887 460 702 3 
888 460 459 1 
889 460 692 3 
890 952 460 3 
891 952 951 1 
892 692 702 3 
893 692 691 1 
894 692 952 3 
895 702 952 3 
896 702 701 1 
897 673 951 2 
898 954 1208 3 
899 954 953 1 
900 954 1174 3 
901 1182 954 3 
902 1182 1181 1 
903 1453 1665 2 
904 1665 1666 1 
905 1192 1934 3 
906 1192 1191 1 
907 1703 1704 1 
908 1934 1412 3 
909 1934 1933 1 
910 1412 1192 3 
911 1412 1411 1 
912 1666 1454 3 
913 2205 2206 1 
914 1699 1700 1 
915 2937 2938 1 
916 2924 2923 1 
917 3202 2924 3 
918 3421 3422 1 
919 3421 3711 2 
920 3702 3701 1 
921 3422 3702 3 
922 3683 3684 1 
923 3457 3683 2 
924 4687 4688 1 
925 5201 5202 1 
926 5189 5190 1 
927 5189 5201 2 
928 4961 4962 1 
929 4423 4424 1 
930 4423 4961 2 
931 4945 4946 1 
932 4683 4945 2 
933 5675 5676 1 
934 5444 5660 3 
935 5444 5443 1 
936 5956 5444 3 
937 5956 5955 1 
938 5660 5956 3 
939 5660 5659 1 
940 5210 6222 3 
941 5918 5917 1 
942 6184 5918 3 
943 423 5933 2 
944 6217 6218 1 
945 194 193 1 
946 221 222 1 
947 196 194 3 
948 706 180 3 
949 706 705 1 
950 180 5968 3 
951 180 179 1 
952 5968 706 3 
953 5968 5967 1 
954 6196 406 3 
955 472 471 1 
956 195 196 1 
957 406 405 1 
958 222 178 3 
959 471 661 2 
960 183 691 2 
961 1215 1216 1 
962 1444 1443 1 
963 699 700 1 
964 699 1215 2 
965 700 1444 3 
966 1964 1720 3 
967 1964 1963 1 
968 1942 1964 3 
969 1942 1941 1 
970 1943 1944 1 
971 1720 1942 3 
972 1720 1719 1 
973 3701 3975 2 
974 3975 3976 1 
975 4201 4202 1 
976 4672 4671 1 
977 4220 4672 3 
978 4219 4693 2 
979 4219 4220 1 
980 3685 3686 1 
981 3686 4694 3 
982 4471 4963 2 
983 4707 4708 1 
984 4684 4216 3 
985 4684 4683 1 
986 4216 4162 3 
987 4216 4215 1 
988 4162 4684 3 
989 4162 4161 1 
990 5224 5223 1 
991 4209 5451 2 
992 5457 5458 1 
993 5451 5452 1 
994 6222 6221 1 
995 5966 204 3 
996 5966 5965 1 
997 204 5932 3 
998 204 203 1 
999 204 5934 3 
1000 5932 5966 3 
1001 5932 5931 1 
1002 5932 5934 3 
1003 5934 5966 3 
1004 5934 5933 1 
1005 5964 6174 3 
1006 5964 5963 1 
1007 5206 5964 3 
1008 5206 5205 1 
1009 6174 5206 3 
1010 6174 6173 1 
1011 5967 6173 2 
1012 6163 6164 1 
1013 209 210 1 
1014 209 729 2 
1015 6195 6196 1 
1016 5994 730 3 
1017 730 729 1 
1018 184 183 1 
1019 1230 184 3 
1020 1725 1726 1 
1021 997 1451 2 
1022 1451 1452 1 
1023 1717 1718 1 
1024 1452 998 3 
1025 998 997 1 
1026 1999 2000 1 
1027 1999 2973 2 
1028 2973 2974 1 
1029 2196 2208 3 
1030 2195 2196 1 
1031 2195 2207 2 
1032 2208 2207 1 
1033 2208 3432 3 
1034 3443 3444 1 
1035 2701 2702 1 
1036 2701 3443 2 
1037 3222 3456 3 
1038 3456 3455 1 
1039 2719 3231 2 
1040 3221 3222 1 
1041 2713 2714 1 
1042 3187 3188 1 
1043 3187 3427 2 
1044 4694 4693 1 
1045 3994 4472 3 
1046 4472 4471 1 
1047 4987 4988 1 
1048 4437 4438 1 
1049 4215 4437 2 
1050 4225 4226 1 
1051 4479 4713 2 
1052 5458 5224 3 
1053 5717 5718 1 
1054 5463 5464 1 
1055 5463 5937 2 
1056 203 5207 2 
1057 5937 5938 1 
1058 5207 5208 1 
1059 5723 5724 1 
1060 5441 5442 1 
1061 5724 5714 3 
1062 465 466 1 
1063 8 7 1 
1064 264 8 3 
1065 7 497 2 
1066 1951 1952 1 
1067 217 1951 2 
1068 1221 1222 1 
1069 1211 1212 1 
1070 1211 1221 2 
1071 725 726 1 
1072 1718 2240 3 
1073 2240 2239 1 
1074 1994 2240 3 
1075 1498 1994 3 
1076 1498 2240 3 
1077 1482 1978 3 
1078 1482 1481 1 
1079 1978 1956 3 
1080 1978 1977 1 
1081 1956 1482 3 
1082 1956 1955 1 
1083 2224 2972 3 
1084 2224 2223 1 
1085 2972 2242 3 
1086 2972 2971 1 
1087 2242 2224 3 
1088 2242 2241 1 
1089 3431 3432 1 
1090 2213 2214 1 
1091 2249 2250 1 
1092 2231 2232 1 
1093 2231 3233 2 
1094 2445 2446 1 
1095 2734 2720 3 
1096 2720 2719 1 
1097 3233 3234 1 
1098 3192 3232 3 
1099 3192 3191 1 
1100 3964 3192 3 
1101 3964 3963 1 
1102 3232 3964 3 
1103 3232 3231 1 
1104 3225 3226 1 
1105 3225 3963 2 
1106 4970 4480 3 
1107 4970 4969 1 
1108 4480 4260 3 
1109 4480 4479 1 
1110 4260 4970 3 
1111 4260 4259 1 
1112 4205 4206 1 
1113 231 232 1 
1114 5973 5974 1 
1115 225 226 1 
1116 1476 1488 3 
1117 1488 1487 1 
1118 1475 1476 1 
1119 1247 1475 2 
1120 1973 1974 1 
1121 1481 2239 2 
1122 2729 2730 1 
1123 3210 2986 3 
1124 3210 3209 1 
1125 3210 3214 3 
1126 3214 2986 3 
1127 3214 3213 1 
1128 2975 2976 1 
1129 2994 3214 3 
1130 2994 2993 1 
1131 2994 3210 3 
1132 2986 2994 3 
1133 2986 2985 1 
1134 2733 2985 2 
1135 2733 2734 1 
1136 2453 2454 1 
1137 2453 3519 2 
1138 3757 3758 1 
1139 4975 4976 1 
1140 3749 3750 1 
1141 4725 4726 1 
1142 4223 4224 1 
1143 3751 3752 1 
1144 4977 4978 1 
1145 236 242 3 
1146 236 5974 3 
1147 226 5974 3 
1148 226 236 3 
1149 253 254 1 
1150 242 241 1 
1151 242 5974 3 
1152 1005 1006 1 
1153 1241 1242 1 
1154 234 233 1 
1155 506 234 3 
1156 486 485 1 
1157 1242 486 3 
1158 5 733 2 
1159 505 506 1 
1160 505 743 2 
1161 1013 1014 1 
1162 1013 1241 2 
1163 1256 1255 1 
1164 1991 1992 1 
1165 2255 2256 1 
1166 2243 2244 1 
1167 1741 2243 2 
1168 2495 2496 1 
1169 2503 2504 1 
1170 2503 2739 2 
1171 2251 2489 2 
1172 2489 2490 1 
1173 1996 1995 1 
1174 2993 3217 2 
1175 2497 2498 1 
1176 2247 2248 1 
1177 3510 3010 3 
1178 3510 3509 1 
1179 3010 3986 3 
1180 3010 3009 1 
1181 2997 2998 1 
1182 3986 3510 3 
1183 3986 3985 1 
1184 3493 4021 2 
1185 3465 3466 1 
1186 3494 3493 1 
1187 4011 4012 1 
1188 3491 3492 1 
1189 3770 3769 1 
1190 4724 4723 1 
1191 4758 4724 3 
1192 5017 5239 2 
1193 4493 4494 1 
1194 4493 4735 2 
1195 5481 5482 1 
1196 5249 5250 1 
1197 5249 5481 2 
1198 5489 5789 2 
1199 4735 4736 1 
1200 4522 4280 3 
1201 5490 5266 3 
1202 5490 5489 1 
1203 5018 5266 3 
1204 5018 5017 1 
1205 5018 5492 3 
1206 5018 5490 3 
1207 5492 5490 3 
1208 5492 5491 1 
1209 5266 5492 3 
1210 5266 5265 1 
1211 4755 5501 2 
1212 5472 5734 3 
1213 5472 5471 1 
1214 5734 5748 3 
1215 5734 5733 1 
1216 5748 5472 3 
1217 5748 5747 1 
1218 6042 6041 1 
1219 10 6042 3 
1220 25 26 1 
1221 1240 6 3 
1222 6 5 1 
1223 753 754 1 
1224 1243 1244 1 
1225 754 756 3 
1226 756 755 1 
1227 757 758 1 
1228 755 1499 2 
1229 1011 1012 1 
1230 1011 1483 2 
1231 1483 1484 1 
1232 1279 2019 2 
1233 1501 1502 1 
1234 1501 1537 2 
1235 1507 2225 2 
1236 1748 1747 1 
1237 2006 1764 3 
1238 2006 2005 1 
1239 2006 2226 3 
1240 1724 1748 3 
1241 1765 1766 1 
1242 1525 1526 1 
1243 1525 1765 2 
1244 1272 2226 3 
1245 1272 1271 1 
1246 1272 2006 3 
1247 2226 1764 3 
1248 2226 2225 1 
1249 1764 1272 3 
1250 1764 1763 1 
1251 1265 1266 1 
1252 1265 2273 2 
1253 1723 2253 2 
1254 1723 1724 1 
1255 2253 2254 1 
1256 2274 2266 3 
1257 2274 2273 1 
1258 2274 2294 3 
1259 2274 2770 3 
1260 2770 2294 3 
1261 2770 2769 1 
1262 2294 2266 3 
1263 2294 2293 1 
1264 2266 2770 3 
1265 2266 2265 1 
1266 2270 2010 3 
1267 2270 2269 1 
1268 2254 2280 3 
1269 2254 2786 3 
1270 2280 2279 1 
1271 2280 2492 3 
1272 2280 2786 3 
1273 2961 2962 1 
1274 2745 2746 1 
1275 1751 1752 1 
1276 1751 2769 2 
1277 2279 2509 2 
1278 2509 2510 1 
1279 2276 2018 3 
1280 2276 2275 1 
1281 3256 3255 1 
1282 2962 3256 3 
1283 2513 2514 1 
1284 2979 2980 1 
1285 2979 3235 2 
1286 3277 3278 1 
1287 2996 3228 3 
1288 2996 2995 1 
1289 3992 3502 3 
1290 3504 4022 3 
1291 4022 4021 1 
1292 3763 3764 1 
1293 3769 4503 2 
1294 4503 4504 1 
1295 3502 3501 1 
1296 4748 4462 3 
1297 3527 3528 1 
1298 3527 3777 2 
1299 4462 4461 1 
1300 4290 4744 3 
1301 4290 4289 1 
1302 3744 4744 3 
1303 3744 3743 1 
1304 3744 4290 3 
1305 3766 3744 3 
1306 3766 3765 1 
1307 3766 4290 3 
1308 4744 3766 3 
1309 4744 4743 1 
1310 5242 4742 3 
1311 5242 5241 1 
1312 4742 4762 3 
1313 4742 4741 1 
1314 5504 4752 3 
1315 5504 5503 1 
1316 4762 5242 3 
1317 4762 4761 1 
1318 5790 5504 3 
1319 5790 5789 1 
1320 4509 4510 1 
1321 4509 4727 2 
1322 4752 5790 3 
1323 4752 4751 1 
1324 4727 4728 1 
1325 4262 4516 3 
1326 4262 4261 1 
1327 4780 4262 3 
1328 4780 4779 1 
1329 4993 4994 1 
1330 4729 4993 2 
1331 4515 4741 2 
1332 4279 4505 2 
1333 5521 5522 1 
1334 5758 5020 3 
1335 5758 5757 1 
1336 5020 5276 3 
1337 5020 5019 1 
1338 5014 5502 3 
1339 5256 5255 1 
1340 5502 5501 1 
1341 5742 5256 3 
1342 5751 5752 1 
1343 5981 6007 2 
1344 27 28 1 
1345 5518 5754 3 
1346 6001 6002 1 
1347 6001 6009 2 
1348 6224 250 3 
1349 6224 6223 1 
1350 5754 5753 1 
1351 508 5982 3 
1352 5517 5518 1 
1353 30 6016 3 
1354 30 29 1 
1355 520 30 3 
1356 520 519 1 
1357 6016 520 3 
1358 6016 6015 1 
1359 5766 5765 1 
1360 5766 6242 3 
1361 6242 6010 3 
1362 274 273 1 
1363 274 6010 3 
1364 6010 6009 1 
1365 6010 5766 3 
1366 22 512 3 
1367 22 274 3 
1368 22 6242 3 
1369 512 511 1 
1370 512 274 3 
1371 512 5766 3 
1372 529 530 1 
1373 489 490 1 
1374 763 764 1 
1375 525 526 1 
1376 515 516 1 
1377 747 748 1 
1378 502 1022 3 
1379 768 1022 3 
1380 526 522 3 
1381 526 1022 3 
1382 270 522 3 
1383 270 768 3 
1384 270 526 3 
1385 522 521 1 
1386 522 768 3 
1387 516 284 3 
1388 284 283 1 
1389 787 788 1 
1390 787 1029 2 
1391 285 1275 2 
1392 981 982 1 
1393 981 1235 2 
1394 1021 1022 1 
1395 535 1021 2 
1396 1276 1030 3 
1397 1276 1275 1 
1398 782 1276 3 
1399 782 781 1 
1400 1030 782 3 
1401 1030 1029 1 
1402 1032 1038 3 
1403 1032 1031 1 
1404 781 1523 2 
1405 1780 1034 3 
1406 1780 1779 1 
1407 2020 1780 3 
1408 2020 2019 1 
1409 1034 2020 3 
1410 1034 1033 1 
1411 1746 1034 3 
1412 1746 1745 1 
1413 1746 1780 3 
1414 1746 2020 3 
1415 760 1054 3 
1416 760 759 1 
1417 1308 760 3 
1418 1308 1307 1 
1419 1038 772 3 
1420 1038 1037 1 
1421 1054 1308 3 
1422 1054 1053 1 
1423 2014 2013 1 
1424 1266 2014 3 
1425 1769 1770 1 
1426 1757 1758 1 
1427 1770 1270 3 
1428 1270 1269 1 
1429 1747 1757 2 
1430 2023 2293 2 
1431 2533 2534 1 
1432 1519 2275 2 
1433 2981 2982 1 
1434 2481 2482 1 
1435 2481 3017 2 
1436 3017 3018 1 
1437 3018 2760 3 
1438 2261 2771 2 
1439 2511 2512 1 
1440 2511 2767 2 
1441 2521 2522 1 
1442 2521 3515 2 
1443 2792 3268 3 
1444 2792 2791 1 
1445 2768 2792 3 
1446 2768 2767 1 
1447 3550 3549 1 
1448 3304 3550 3 
1449 4258 3522 3 
1450 3495 3496 1 
1451 2262 3262 3 
1452 2262 2261 1 
1453 2262 2518 3 
1454 3788 2262 3 
1455 3788 3787 1 
1456 3262 3788 3 
1457 3262 3261 1 
1458 2518 3262 3 
1459 2518 2517 1 
1460 2518 3788 3 
1461 3522 3521 1 
1462 3253 3254 1 
1463 3764 3778 3 
1464 3778 3777 1 
1465 4285 4286 1 
1466 4017 4285 2 
1467 3013 4513 2 
1468 4513 4514 1 
1469 4266 4272 3 
1470 4266 4265 1 
1471 4266 4270 3 
1472 4278 4266 3 
1473 4278 4277 1 
1474 4270 4272 3 
1475 4270 4269 1 
1476 4270 4278 3 
1477 4272 4278 3 
1478 4272 4271 1 
1479 4018 4017 1 
1480 4793 4794 1 
1481 4504 4018 3 
1482 5036 4282 3 
1483 5036 5035 1 
1484 4534 5036 3 
1485 4534 4533 1 
1486 4282 4264 3 
1487 4282 4281 1 
1488 4282 4534 3 
1489 4281 4787 2 
1490 4289 4497 2 
1491 4498 4268 3 
1492 4268 4267 1 
1493 4776 5530 3 
1494 4745 4746 1 
1495 4745 5021 2 
1496 5289 5290 1 
1497 5530 5529 1 
1498 5533 5534 1 
1499 4753 4754 1 
1500 4753 5533 2 
1501 4774 5022 3 
1502 4774 4773 1 
1503 5001 5263 2 
1504 5987 5988 1 
1505 5013 5014 1 
1506 4773 5013 2 
1507 5261 5987 2 
1508 5771 5772 1 
1509 5003 5515 2 
1510 5515 5516 1 
1511 5767 5768 1 
1512 280 532 3 
1513 258 38 3 
1514 273 541 2 
1515 532 531 1 
1516 261 531 2 
1517 785 786 1 
1518 38 37 1 
1519 514 513 1 
1520 788 514 3 
1521 521 1067 2 
1522 1067 1068 1 
1523 793 794 1 
1524 1016 550 3 
1525 281 282 1 
1526 550 549 1 
1527 772 1032 3 
1528 772 771 1 
1529 296 295 1 
1530 794 290 3 
1531 290 289 1 
1532 518 296 3 
1533 771 1533 2 
1534 289 1759 2 
1535 1536 1268 3 
1536 1536 1535 1 
1537 1760 1536 3 
1538 1760 1759 1 
1539 1278 1268 3 
1540 1278 1277 1 
1541 1278 1760 3 
1542 1278 1536 3 
1543 1268 1760 3 
1544 1268 1267 1 
1545 1261 1557 2 
1546 1777 1778 1 
1547 1267 1549 2 
1548 1511 1512 1 
1549 1511 1743 2 
1550 1743 1744 1 
1551 319 320 1 
1552 2049 2050 1 
1553 2024 2023 1 
1554 1744 2024 3 
1555 2289 2290 1 
1556 2286 2285 1 
1557 2025 2026 1 
1558 2025 2807 2 
1559 2763 2764 1 
1560 1520 1519 1 
1561 2314 1520 3 
1562 2759 3251 2 
1563 2040 1544 3 
1564 2040 2039 1 
1565 1544 2318 3 
1566 1544 1543 1 
1567 2271 2272 1 
1568 2271 2763 2 
1569 2760 2759 1 
1570 2519 2520 1 
1571 3020 2798 3 
1572 3020 3019 1 
1573 3020 3546 3 
1574 3020 3026 3 
1575 2798 3546 3 
1576 2798 2797 1 
1577 3026 2798 3 
1578 3026 3025 1 
1579 3546 3026 3 
1580 3546 3545 1 
1581 2281 2529 2 
1582 3515 3516 1 
1583 3261 3545 2 
1584 3288 3287 1 
1585 3286 3288 3 
1586 3022 3021 1 
1587 3496 3022 3 
1588 3257 3258 1 
1589 3033 4061 2 
1590 2781 3289 2 
1591 3289 3290 1 
1592 3285 3286 1 
1593 3285 3293 2 
1594 3269 3270 1 
1595 4024 4023 1 
1596 3270 4024 3 
1597 3311 3312 1 
1598 3311 3547 2 
1599 3811 3812 1 
1600 3544 4046 3 
1601 3544 3543 1 
1602 4046 4028 3 
1603 4046 4045 1 
1604 3014 3544 3 
1605 3014 3013 1 
1606 3014 4028 3 
1607 3014 4046 3 
1608 4028 3544 3 
1609 4028 4027 1 
1610 4039 4040 1 
1611 5024 4518 3 
1612 5024 5023 1 
1613 4056 4055 1 
1614 4518 4772 3 
1615 4518 4517 1 
1616 4810 4056 3 
1617 4037 4038 1 
1618 4525 4789 2 
1619 4526 4788 3 
1620 4526 4525 1 
1621 4273 4274 1 
1622 4273 5297 2 
1623 4519 5031 2 
1624 5039 5535 2 
1625 5545 5546 1 
1626 5022 4520 3 
1627 5022 5021 1 
1628 5523 5524 1 
1629 5523 6047 2 
1630 6047 6048 1 
1631 4520 4774 3 
1632 4520 4519 1 
1633 5823 5824 1 
1634 4759 4760 1 
1635 5775 5823 2 
1636 5262 5261 1 
1637 6048 5262 3 
1638 5761 5762 1 
1639 5762 5004 3 
1640 5004 5003 1 
1641 5532 5531 1 
1642 5320 5532 3 
1643 5774 5800 3 
1644 5774 5773 1 
1645 21 22 1 
1646 21 511 2 
1647 6024 5774 3 
1648 6024 6023 1 
1649 5800 6024 3 
1650 5800 5799 1 
1651 279 280 1 
1652 35 6035 2 
1653 1015 1016 1 
1654 79 80 1 
1655 79 775 2 
1656 547 1025 2 
1657 1025 1026 1 
1658 47 48 1 
1659 47 517 2 
1660 517 518 1 
1661 789 790 1 
1662 761 762 1 
1663 761 1037 2 
1664 534 533 1 
1665 1512 534 3 
1666 1801 1802 1 
1667 1539 1540 1 
1668 1505 1506 1 
1669 1505 1801 2 
1670 2283 2284 1 
1671 2807 2808 1 
1672 2295 2296 1 
1673 2563 2817 2 
1674 1543 1827 2 
1675 2817 2818 1 
1676 2520 2766 3 
1677 2551 2552 1 
1678 2766 2765 1 
1679 2263 2765 2 
1680 3252 2282 3 
1681 3252 3251 1 
1682 1784 3252 3 
1683 1784 1783 1 
1684 2282 1784 3 
1685 2282 2281 1 
1686 2264 3036 3 
1687 2264 2263 1 
1688 3296 2264 3 
1689 3296 3295 1 
1690 3291 3299 2 
1691 3036 3296 3 
1692 3036 3035 1 
1693 3578 2782 3 
1694 2782 2781 1 
1695 2782 3070 3 
1696 3294 3796 3 
1697 3294 4062 3 
1698 4062 4061 1 
1699 3070 3796 3 
1700 3796 4062 3 
1701 3560 4062 3 
1702 3293 3294 1 
1703 3746 3745 1 
1704 4026 3746 3 
1705 4035 4036 1 
1706 3783 3784 1 
1707 3320 3319 1 
1708 4052 3804 3 
1709 4033 4045 2 
1710 4040 3320 3 
1711 4772 5024 3 
1712 4772 4771 1 
1713 4034 4033 1 
1714 4044 4034 3 
1715 4029 4030 1 
1716 4809 4810 1 
1717 4789 4790 1 
1718 4764 4532 3 
1719 4764 4763 1 
1720 4556 4764 3 
1721 4556 4555 1 
1722 4532 4550 3 
1723 4532 4531 1 
1724 4532 4556 3 
1725 4550 4764 3 
1726 4550 4549 1 
1727 4550 4556 3 
1728 5054 5254 3 
1729 5054 5053 1 
1730 5032 5054 3 
1731 5032 5031 1 
1732 5254 5032 3 
1733 5254 5253 1 
1734 4528 5582 3 
1735 4528 4527 1 
1736 4528 5040 3 
1737 4528 5314 3 
1738 4294 4293 1 
1739 4296 4294 3 
1740 4558 5032 3 
1741 4558 4557 1 
1742 4558 5054 3 
1743 4558 5254 3 
1744 5040 5582 3 
1745 5040 5039 1 
1746 5314 5040 3 
1747 5314 5313 1 
1748 5582 5314 3 