ITEM: TIMESTEP
42680
ITEM: NUMBER OF ENTRIES
7096
ITEM: BOX BOUNDS pp pp ff
0.0000000000000000e+00 7.2168784000000002e+01
0.0000000000000000e+00 7.2168784000000002e+01
0.0000000000000000e+00 1.2000000000000000e+01
ITEM: ENTRIES index c_1[1] c_1[2] c_1[3]
1 6002 244 3 
2 6001 6002 1 
3 6001 6009 2 
4 244 243 1 
5 488 487 1 
6 26 488 3 
7 1239 1240 1 
8 485 1239 2 
9 1240 6 3 
10 1244 778 3 
11 1244 1243 1 
12 778 1042 3 
13 778 777 1 
14 1525 1526 1 
15 1525 1765 2 
16 2001 2002 1 
17 2001 2485 2 
18 2762 1504 3 
19 2762 2761 1 
20 1504 2252 3 
21 1504 1503 1 
22 2252 2732 3 
23 2252 2251 1 
24 2252 2762 3 
25 2732 1504 3 
26 2732 2731 1 
27 2732 2762 3 
28 3512 3526 3 
29 3526 3525 1 
30 4012 3770 3 
31 3770 3769 1 
32 4286 4514 3 
33 4514 4513 1 
34 3015 3525 2 
35 3491 3492 1 
36 4276 4048 3 
37 4276 4275 1 
38 4275 5525 2 
39 4999 5237 2 
40 474 6014 3 
41 474 473 1 
42 6018 474 3 
43 6018 6017 1 
44 6014 6018 3 
45 6014 6013 1 
46 6010 6009 1 
47 6010 5766 3 
48 274 273 1 
49 274 6010 3 
50 6012 252 3 
51 6012 6011 1 
52 252 5772 3 
53 252 251 1 
54 6242 6010 3 
55 5772 6012 3 
56 5772 5771 1 
57 512 511 1 
58 512 274 3 
59 512 5766 3 
60 22 512 3 
61 22 274 3 
62 22 6242 3 
63 515 516 1 
64 522 521 1 
65 522 768 3 
66 270 522 3 
67 270 768 3 
68 270 526 3 
69 768 1022 3 
70 526 522 3 
71 526 1022 3 
72 759 777 2 
73 1019 1779 2 
74 2024 2023 1 
75 2023 2293 2 
76 2503 2504 1 
77 2503 2739 2 
78 2961 2962 1 
79 2962 3256 3 
80 2531 2731 2 
81 4257 4258 1 
82 3985 4257 2 
83 2511 2512 1 
84 2511 2767 2 
85 2784 2783 1 
86 3290 2784 3 
87 3269 3270 1 
88 2783 3269 2 
89 3511 3512 1 
90 3812 3016 3 
91 3812 3811 1 
92 4011 4012 1 
93 3798 3812 3 
94 3798 3797 1 
95 3016 3798 3 
96 3016 3015 1 
97 4048 4500 3 
98 4048 4047 1 
99 4500 4276 3 
100 4500 4499 1 
101 6246 4488 3 
102 6246 6245 1 
103 4488 5238 3 
104 4488 4487 1 
105 5238 6246 3 
106 5238 5237 1 
107 273 541 2 
108 6011 6021 2 
109 767 768 1 
110 767 1043 2 
111 545 553 2 
112 1044 1048 3 
113 1044 1043 1 
114 1048 540 3 
115 1048 1047 1 
116 1308 760 3 
117 1308 1307 1 
118 1054 1308 3 
119 1054 1053 1 
120 760 1054 3 
121 760 759 1 
122 1744 2024 3 
123 1282 1774 3 
124 1282 1281 1 
125 1772 1282 3 
126 1772 1771 1 
127 1774 1772 3 
128 1774 1773 1 
129 3256 3255 1 
130 1520 2296 3 
131 1520 1519 1 
132 1520 2818 3 
133 2296 2314 3 
134 2296 2295 1 
135 2314 1520 3 
136 2314 2313 1 
137 2314 2818 3 
138 2818 2296 3 
139 2818 2817 1 
140 2532 2772 3 
141 2532 2531 1 
142 2772 2530 3 
143 2772 2771 1 
144 2530 2532 3 
145 2530 2529 1 
146 3022 3021 1 
147 3496 3022 3 
148 3033 4061 2 
149 3315 4035 2 
150 3270 4024 3 
151 3795 3796 1 
152 3537 3795 2 
153 3242 3032 3 
154 3242 3241 1 
155 3539 3540 1 
156 4037 4038 1 
157 5290 4754 3 
158 5290 5289 1 
159 6030 5540 3 
160 6030 6029 1 
161 5780 542 3 
162 5780 5779 1 
163 5780 6030 3 
164 5765 6013 2 
165 542 6030 3 
166 542 541 1 
167 540 1044 3 
168 540 539 1 
169 296 786 3 
170 296 295 1 
171 786 518 3 
172 786 785 1 
173 518 296 3 
174 518 517 1 
175 1512 534 3 
176 534 533 1 
177 290 289 1 
178 1539 1791 2 
179 1321 1322 1 
180 1321 2545 2 
181 2545 2546 1 
182 2044 2564 3 
183 2044 2043 1 
184 2313 2775 2 
185 2563 2817 2 
186 3292 3291 1 
187 3310 3292 3 
188 3283 3319 2 
189 3785 3786 1 
190 3785 4043 2 
191 4043 4044 1 
192 3803 3804 1 
193 3803 4051 2 
194 4294 5524 3 
195 4294 4293 1 
196 4558 5032 3 
197 4558 4557 1 
198 4558 5054 3 
199 4558 5254 3 
200 5032 5054 3 
201 5032 5031 1 
202 4767 4783 2 
203 5054 5254 3 
204 5054 5053 1 
205 4296 4294 3 
206 4296 4295 1 
207 5524 4296 3 
208 5524 5523 1 
209 5254 5032 3 
210 5254 5253 1 
211 6065 6066 1 
212 5805 6043 2 
213 6044 538 3 
214 6044 6043 1 
215 538 322 3 
216 538 537 1 
217 322 6044 3 
218 322 321 1 
219 47 48 1 
220 47 517 2 
221 794 290 3 
222 1301 1569 2 
223 1302 1540 3 
224 1302 1301 1 
225 1540 1572 3 
226 1540 1539 1 
227 1064 1572 3 
228 1064 1063 1 
229 1064 1540 3 
230 1064 1302 3 
231 1572 1302 3 
232 1572 1571 1 
233 1063 1817 2 
234 1333 2307 2 
235 2022 1824 3 
236 2022 2021 1 
237 2022 2292 3 
238 2108 1840 3 
239 2108 2107 1 
240 1571 1781 2 
241 2564 2776 3 
242 2564 2563 1 
243 2776 2044 3 
244 2776 2775 1 
245 1782 1781 1 
246 1822 1782 3 
247 1796 2564 3 
248 1796 1795 1 
249 1796 2776 3 
250 1796 2044 3 
251 1795 2053 2 
252 1299 2573 2 
253 3291 3299 2 
254 4291 4587 2 
255 4816 4310 3 
256 4310 4309 1 
257 4292 3568 3 
258 4292 4291 1 
259 4085 4086 1 
260 4567 5331 2 
261 4567 4568 1 
262 5056 4808 3 
263 5056 5055 1 
264 4812 5056 3 
265 4812 4811 1 
266 4808 4812 3 
267 4808 4807 1 
268 4568 4768 3 
269 4564 4812 3 
270 4564 4563 1 
271 4564 5056 3 
272 4564 4808 3 
273 4293 4557 2 
274 4768 4767 1 
275 5043 5317 2 
276 5317 5318 1 
277 5775 5823 2 
278 5823 5824 1 
279 523 524 1 
280 17 18 1 
281 329 330 1 
282 329 561 2 
283 95 96 1 
284 95 6081 2 
285 6081 6082 1 
286 826 1076 3 
287 826 825 1 
288 610 1076 3 
289 610 609 1 
290 610 826 3 
291 59 6055 2 
292 6055 6056 1 
293 71 799 2 
294 83 307 2 
295 1072 820 3 
296 1072 1071 1 
297 856 1072 3 
298 856 855 1 
299 820 856 3 
300 820 819 1 
301 96 1324 3 
302 1324 1323 1 
303 72 314 3 
304 72 71 1 
305 72 798 3 
306 798 314 3 
307 798 797 1 
308 70 798 3 
309 70 69 1 
310 70 72 3 
311 314 70 3 
312 314 313 1 
313 1562 1798 3 
314 2852 2108 3 
315 2852 2851 1 
316 2054 2332 3 
317 2054 2053 1 
318 1334 2054 3 
319 1334 1333 1 
320 1561 1562 1 
321 2332 1334 3 
322 2332 2331 1 
323 1797 2021 2 
324 1799 2069 2 
325 3604 3044 3 
326 3604 3603 1 
327 2828 3604 3 
328 2828 2827 1 
329 3044 2828 3 
330 3044 3043 1 
331 3814 3564 3 
332 3814 3813 1 
333 3065 3325 2 
334 4815 4816 1 
335 4299 4300 1 
336 4544 4798 3 
337 4544 4543 1 
338 5328 5327 1 
339 5316 6088 3 
340 6088 6087 1 
341 6080 6079 1 
342 544 6080 3 
343 543 544 1 
344 562 300 3 
345 562 561 1 
346 6054 354 3 
347 6054 6053 1 
348 6027 6028 1 
349 6027 6079 2 
350 354 5806 3 
351 354 353 1 
352 324 76 3 
353 324 323 1 
354 324 562 3 
355 5806 6054 3 
356 5806 5805 1 
357 76 562 3 
358 76 75 1 
359 353 5541 2 
360 300 76 3 
361 300 299 1 
362 300 324 3 
363 5821 5822 1 
364 6028 6076 3 
365 6028 6096 3 
366 2599 2600 1 
367 1311 2083 2 
368 2084 2322 3 
369 2084 2083 1 
370 2581 2582 1 
371 2805 2806 1 
372 2568 2567 1 
373 2806 2568 3 
374 2035 2036 1 
375 2337 2338 1 
376 3297 3619 2 
377 3829 3830 1 
378 3829 3847 2 
379 3607 3608 1 
380 3607 3813 2 
381 3848 3847 1 
382 3071 3075 2 
383 3324 3848 3 
384 3067 3321 2 
385 3801 4071 2 
386 4072 4322 3 
387 4072 4071 1 
388 4853 4854 1 
389 4604 4603 1 
390 5346 4604 3 
391 5052 5051 1 
392 4339 4340 1 
393 5090 5052 3 
394 336 822 3 
395 336 335 1 
396 822 316 3 
397 822 821 1 
398 1083 1084 1 
399 1083 1563 2 
400 841 843 2 
401 2077 2078 1 
402 847 848 1 
403 847 2077 2 
404 842 841 1 
405 1341 1342 1 
406 1341 1831 2 
407 1582 842 3 
408 2072 2071 1 
409 2338 2072 3 
410 3081 3082 1 
411 3864 3092 3 
412 3864 3863 1 
413 2833 2834 1 
414 3092 3606 3 
415 3092 3091 1 
416 3606 3864 3 
417 3606 3605 1 
418 2834 3354 3 
419 3802 5062 3 
420 3802 3801 1 
421 5062 4074 3 
422 5062 5061 1 
423 4355 4603 2 
424 3833 3834 1 
425 3833 4571 2 
426 4094 4356 3 
427 4094 4093 1 
428 4094 4578 3 
429 4356 4576 3 
430 4356 4355 1 
431 5345 5346 1 
432 5079 5345 2 
433 5080 5562 3 
434 5080 5079 1 
435 5562 4876 3 
436 5562 5561 1 
437 5102 5094 3 
438 5102 5101 1 
439 5348 5102 3 
440 5348 5347 1 
441 5573 5574 1 
442 5051 5573 2 
443 77 78 1 
444 77 823 2 
445 115 857 2 
446 6125 6126 1 
447 1090 1086 3 
448 1090 1089 1 
449 1328 1090 3 
450 1328 1327 1 
451 1086 1328 3 
452 1086 1085 1 
453 1091 1103 2 
454 1851 1852 1 
455 1835 2115 2 
456 2115 2116 1 
457 2611 2612 1 
458 2611 3083 2 
459 3084 2826 3 
460 3084 3083 1 
461 2862 3084 3 
462 2862 2861 1 
463 3593 3863 2 
464 3091 3335 2 
465 4117 4118 1 
466 4117 4341 2 
467 4609 4610 1 
468 4341 4342 1 
469 4105 4106 1 
470 4105 4609 2 
471 3822 3850 3 
472 3822 3821 1 
473 4572 3822 3 
474 4572 4571 1 
475 3850 4572 3 
476 3850 3849 1 
477 4569 4575 2 
478 4342 4822 3 
479 4342 4346 3 
480 4578 4356 3 
481 4578 4577 1 
482 4346 4345 1 
483 4122 4346 3 
484 4122 4342 3 
485 4122 4822 3 
486 5094 5348 3 
487 5094 5093 1 
488 4599 4600 1 
489 4599 4875 2 
490 4595 5093 2 
491 5135 5136 1 
492 5135 5347 2 
493 4825 4826 1 
494 5866 6074 3 
495 5866 5865 1 
496 348 5866 3 
497 348 347 1 
498 6074 348 3 
499 6074 6073 1 
500 876 1350 3 
501 876 875 1 
502 858 876 3 
503 858 857 1 
504 1148 1147 1 
505 1350 858 3 
506 1350 1349 1 
507 628 1148 3 
508 2134 1620 3 
509 1620 1619 1 
510 595 1107 2 
511 812 1338 3 
512 812 811 1 
513 812 1634 3 
514 1114 812 3 
515 1114 1113 1 
516 1114 1634 3 
517 1338 1114 3 
518 1338 1337 1 
519 1634 1338 3 
520 1634 1633 1 
521 1852 1394 3 
522 2136 2092 3 
523 2136 2135 1 
524 2128 2136 3 
525 2128 2127 1 
526 1618 2128 3 
527 1618 1617 1 
528 1618 2092 3 
529 1618 2136 3 
530 1836 1606 3 
531 1836 1835 1 
532 2131 2132 1 
533 2131 2135 2 
534 2826 2862 3 
535 2826 2825 1 
536 2363 2861 2 
537 2825 3339 2 
538 3099 3100 1 
539 3594 3593 1 
540 3366 3594 3 
541 4350 3088 3 
542 4350 4349 1 
543 3088 2842 3 
544 3088 3087 1 
545 2842 4350 3 
546 2842 2841 1 
547 4821 4822 1 
548 3625 3626 1 
549 3625 3851 2 
550 4608 4590 3 
551 4608 4607 1 
552 4121 4122 1 
553 4121 4607 2 
554 3875 3876 1 
555 3875 4589 2 
556 4592 4890 3 
557 4592 4591 1 
558 4890 5354 3 
559 4890 4889 1 
560 5354 4592 3 
561 5354 5353 1 
562 4376 4844 3 
563 4622 4621 1 
564 4622 4844 3 
565 4593 4594 1 
566 4593 5115 2 
567 4600 4596 3 
568 4596 4595 1 
569 5136 5368 3 
570 5115 5116 1 
571 6109 6110 1 
572 6110 114 3 
573 372 371 1 
574 114 113 1 
575 5849 5850 1 
576 347 5863 2 
577 5883 5884 1 
578 653 1147 2 
579 6142 1372 3 
580 1372 1371 1 
581 395 1117 2 
582 1597 1619 2 
583 2092 2128 3 
584 2092 2091 1 
585 1605 1869 2 
586 1869 1870 1 
587 1131 1139 2 
588 2361 2362 1 
589 3134 2372 3 
590 3134 3133 1 
591 1132 3134 3 
592 1132 1131 1 
593 2372 1132 3 
594 2372 2371 1 
595 1617 2855 2 
596 3861 3862 1 
597 3862 3624 3 
598 3372 3910 3 
599 3910 3909 1 
600 2336 3124 3 
601 2336 2335 1 
602 3884 2336 3 
603 3884 3883 1 
604 3124 3884 3 
605 3124 3123 1 
606 3851 3852 1 
607 4384 4383 1 
608 4362 4384 3 
609 5850 5344 3 
610 362 5864 3 
611 5864 5863 1 
612 5344 5343 1 
613 370 654 3 
614 370 369 1 
615 370 616 3 
616 370 864 3 
617 654 864 3 
618 654 653 1 
619 1133 1134 1 
620 1133 6121 2 
621 124 6114 3 
622 124 123 1 
623 124 128 3 
624 615 1431 2 
625 1136 1135 1 
626 1134 1136 3 
627 1661 1662 1 
628 1623 1624 1 
629 2606 2114 3 
630 2606 2605 1 
631 3374 2606 3 
632 3374 3373 1 
633 2114 3374 3 
634 2114 2113 1 
635 2626 1386 3 
636 2626 2625 1 
637 2118 1636 3 
638 2118 2117 1 
639 2402 2888 3 
640 2402 2401 1 
641 2625 2647 2 
642 2872 2402 3 
643 2872 2871 1 
644 2888 2872 3 
645 2888 2887 1 
646 3136 2878 3 
647 2878 2877 1 
648 3135 3909 2 
649 3135 3136 1 
650 3613 4633 2 
651 3614 4116 3 
652 3614 3613 1 
653 5122 4120 3 
654 5122 5121 1 
655 5356 5122 3 
656 5356 5355 1 
657 4120 5356 3 
658 4120 4119 1 
659 4361 4362 1 
660 4852 4394 3 
661 4852 4851 1 
662 4374 4852 3 
663 4374 4373 1 
664 4374 4394 3 
665 4374 4398 3 
666 5916 5624 3 
667 5916 5915 1 
668 5128 5916 3 
669 5128 5127 1 
670 5128 5910 3 
671 5910 5624 3 
672 5910 5909 1 
673 5910 5916 3 
674 5624 5128 3 
675 5624 5623 1 
676 132 384 3 
677 132 131 1 
678 132 6122 3 
679 384 902 3 
680 384 383 1 
681 6122 384 3 
682 6122 6121 1 
683 1431 1432 1 
684 902 132 3 
685 902 901 1 
686 902 6122 3 
687 389 899 2 
688 414 1376 3 
689 1376 1375 1 
690 1144 1143 1 
691 622 1144 3 
692 1624 1898 3 
693 1650 1649 1 
694 1662 1650 3 
695 1898 1897 1 
696 887 888 1 
697 887 1655 2 
698 1907 2373 2 
699 1391 2605 2 
700 2871 2907 2 
701 3400 2680 3 
702 3400 3399 1 
703 3370 3369 1 
704 3162 3370 3 
705 3389 3390 1 
706 3389 4659 2 
707 4396 4634 3 
708 4634 4633 1 
709 4136 3916 3 
710 4136 4135 1 
711 5121 5143 2 
712 4398 4852 3 
713 4398 4397 1 
714 4394 4398 3 
715 4394 4393 1 
716 4653 4654 1 
717 4653 5147 2 
718 4393 5131 2 
719 4877 4931 2 
720 5396 4676 3 
721 5396 5395 1 
722 5623 5895 2 
723 5617 5618 1 
724 4399 5617 2 
725 416 144 3 
726 416 415 1 
727 416 642 3 
728 642 144 3 
729 642 641 1 
730 642 6148 3 
731 144 6148 3 
732 144 143 1 
733 6148 416 3 
734 6148 6147 1 
735 151 152 1 
736 151 641 2 
737 415 421 2 
738 2175 2176 1 
739 1908 1907 1 
740 2148 1908 3 
741 2129 2175 2 
742 1670 1364 3 
743 1670 1669 1 
744 1364 1896 3 
745 1364 1363 1 
746 1364 2622 3 
747 1896 1670 3 
748 1896 1895 1 
749 2908 2664 3 
750 2908 2907 1 
751 2664 3170 3 
752 2664 2663 1 
753 3170 2908 3 
754 3170 3169 1 
755 2889 3681 2 
756 2889 2890 1 
757 4412 4411 1 
758 3390 4412 3 
759 4153 4154 1 
760 3916 3678 3 
761 3916 3915 1 
762 3678 4136 3 
763 3678 3677 1 
764 5131 5132 1 
765 5144 5143 1 
766 5154 5144 3 
767 4675 4887 2 
768 4195 5155 2 
769 4878 4400 3 
770 4878 4877 1 
771 4888 4878 3 
772 4888 4887 1 
773 5378 5898 3 
774 5378 5377 1 
775 5898 5896 3 
776 5898 5897 1 
777 4390 4389 1 
778 407 408 1 
779 407 5907 2 
780 419 5905 2 
781 163 6181 2 
782 1152 656 3 
783 1152 1151 1 
784 934 422 3 
785 934 933 1 
786 934 1152 3 
787 656 422 3 
788 656 655 1 
789 656 934 3 
790 422 1152 3 
791 422 421 1 
792 1681 1682 1 
793 941 942 1 
794 2466 1926 3 
795 3176 3175 1 
796 2160 3176 3 
797 2663 2683 2 
798 3402 2900 3 
799 2900 2899 1 
800 3649 3650 1 
801 2933 3649 2 
802 3682 2428 3 
803 3682 3681 1 
804 3632 3682 3 
805 3632 3631 1 
806 2428 3632 3 
807 2428 2427 1 
808 4458 4457 1 
809 4444 4458 3 
810 3377 3378 1 
811 5156 4962 3 
812 5156 5155 1 
813 4402 5156 3 
814 4402 4401 1 
815 4962 4402 3 
816 4962 4961 1 
817 4661 4662 1 
818 4661 4929 2 
819 5185 5447 2 
820 4929 4930 1 
821 5186 5174 3 
822 5186 5185 1 
823 4930 5174 3 
824 4930 5446 3 
825 4906 5186 3 
826 4906 4930 3 
827 5446 5186 3 
828 5446 5445 1 
829 4913 5165 2 
830 5165 5166 1 
831 5642 404 3 
832 5642 5641 1 
833 5926 5642 3 
834 5926 5925 1 
835 5413 5659 2 
836 404 5926 3 
837 404 403 1 
838 5928 5920 3 
839 5928 5927 1 
840 6182 5928 3 
841 6182 6181 1 
842 652 946 3 
843 652 651 1 
844 673 951 2 
845 5920 6182 3 
846 5920 5919 1 
847 448 652 3 
848 448 447 1 
849 946 448 3 
850 946 945 1 
851 6214 440 3 
852 440 439 1 
853 702 952 3 
854 702 701 1 
855 701 1173 2 
856 921 922 1 
857 671 921 2 
858 1174 1208 3 
859 1174 1173 1 
860 1174 1182 3 
861 954 1208 3 
862 954 953 1 
863 954 1174 3 
864 1182 954 3 
865 1182 1181 1 
866 1208 1182 3 
867 1208 1207 1 
868 1926 1925 1 
869 1894 1922 3 
870 1894 1893 1 
871 1700 1894 3 
872 1700 1699 1 
873 1922 1700 3 
874 1922 1921 1 
875 2185 2186 1 
876 2185 2193 2 
877 2899 3673 2 
878 2684 2683 1 
879 2902 2684 3 
880 3674 3673 1 
881 3172 3674 3 
882 4167 4457 2 
883 5160 4414 3 
884 5160 5159 1 
885 4914 3938 3 
886 4914 4913 1 
887 4914 5160 3 
888 3938 4414 3 
889 3938 3937 1 
890 3938 5160 3 
891 4414 4914 3 
892 4414 4413 1 
893 5415 5416 1 
894 5415 5673 2 
895 5660 5956 3 
896 5660 5659 1 
897 5444 5660 3 
898 5444 5443 1 
899 5956 5444 3 
900 5956 5955 1 
901 170 169 1 
902 197 449 2 
903 189 190 1 
904 189 695 2 
905 439 665 2 
906 178 177 1 
907 952 460 3 
908 952 951 1 
909 460 702 3 
910 460 459 1 
911 460 692 3 
912 692 702 3 
913 692 691 1 
914 692 952 3 
915 459 935 2 
916 710 936 3 
917 710 709 1 
918 682 672 3 
919 682 681 1 
920 682 710 3 
921 936 682 3 
922 936 935 1 
923 672 936 3 
924 672 671 1 
925 672 710 3 
926 1454 1453 1 
927 681 961 2 
928 1453 1665 2 
929 1665 1666 1 
930 1213 1719 2 
931 2440 2926 3 
932 2440 2439 1 
933 1663 1664 1 
934 1663 2721 2 
935 3201 3202 1 
936 3391 3392 1 
937 2929 2930 1 
938 3439 3440 1 
939 3712 3928 3 
940 3712 3711 1 
941 3458 3712 3 
942 3458 3457 1 
943 3928 3458 3 
944 3928 3927 1 
945 4201 4202 1 
946 3974 3738 3 
947 4716 4715 1 
948 3738 3737 1 
949 4686 4716 3 
950 3457 3683 2 
951 3694 4956 3 
952 3694 3693 1 
953 3694 3934 3 
954 3694 3932 3 
955 4968 3948 3 
956 3948 3947 1 
957 3947 4709 2 
958 4442 5188 3 
959 4162 4216 3 
960 4162 4161 1 
961 4162 4424 3 
962 4967 4968 1 
963 5188 5187 1 
964 4684 4162 3 
965 4684 4683 1 
966 5201 5202 1 
967 5189 5201 2 
968 5189 5190 1 
969 5457 5458 1 
970 4697 5457 2 
971 5936 5935 1 
972 5191 5192 1 
973 5673 5674 1 
974 5674 5936 3 
975 423 5933 2 
976 196 194 3 
977 190 170 3 
978 194 193 1 
979 6218 424 3 
980 424 423 1 
981 706 180 3 
982 706 705 1 
983 180 5968 3 
984 180 179 1 
985 5968 706 3 
986 5968 5967 1 
987 5960 450 3 
988 5960 5959 1 
989 221 222 1 
990 6163 6164 1 
991 6217 6218 1 
992 462 198 3 
993 222 178 3 
994 715 716 1 
995 715 5959 2 
996 6195 6196 1 
997 1720 1719 1 
998 1942 1964 3 
999 1942 1941 1 
1000 1964 1720 3 
1001 1964 1963 1 
1002 1701 1963 2 
1003 2926 2442 3 
1004 2926 1950 3 
1005 2926 2925 1 
1006 2195 2196 1 
1007 2195 2207 2 
1008 3202 2924 3 
1009 2924 2923 1 
1010 2923 2947 2 
1011 2948 3958 3 
1012 2948 2947 1 
1013 2948 3450 3 
1014 2948 3946 3 
1015 3958 3946 3 
1016 3958 3957 1 
1017 3946 3450 3 
1018 3946 3945 1 
1019 3450 3958 3 
1020 3450 3449 1 
1021 3421 3422 1 
1022 3421 3711 2 
1023 4164 4450 3 
1024 4450 4449 1 
1025 3701 3975 2 
1026 3975 3976 1 
1027 3683 3684 1 
1028 4668 4426 3 
1029 4668 4667 1 
1030 3702 3701 1 
1031 3422 3702 3 
1032 4426 3662 3 
1033 4426 4425 1 
1034 3662 4668 3 
1035 3662 3661 1 
1036 4685 4686 1 
1037 3962 3662 3 
1038 3962 3961 1 
1039 3962 4668 3 
1040 3962 4426 3 
1041 4163 4164 1 
1042 3973 3974 1 
1043 3973 4687 2 
1044 4694 4212 3 
1045 4694 4693 1 
1046 4212 3686 3 
1047 4212 4211 1 
1048 3686 4694 3 
1049 3686 3685 1 
1050 4215 4437 2 
1051 5458 5224 3 
1052 5224 5223 1 
1053 4683 4945 2 
1054 5190 4946 3 
1055 4946 4945 1 
1056 5718 5678 3 
1057 5723 5724 1 
1058 5723 6221 2 
1059 6174 5206 3 
1060 6174 6173 1 
1061 5206 5964 3 
1062 5206 5205 1 
1063 5206 5938 3 
1064 5964 6174 3 
1065 5964 5963 1 
1066 5938 5964 3 
1067 5938 5937 1 
1068 5938 6174 3 
1069 5932 5966 3 
1070 5932 5931 1 
1071 5932 5934 3 
1072 5966 204 3 
1073 5966 5965 1 
1074 5934 5966 3 
1075 5934 5933 1 
1076 204 5932 3 
1077 204 203 1 
1078 204 5934 3 
1079 5967 6173 2 
1080 6164 5486 3 
1081 5486 5485 1 
1082 5485 5721 2 
1083 198 197 1 
1084 461 462 1 
1085 1470 1458 3 
1086 720 968 3 
1087 720 719 1 
1088 968 1710 3 
1089 968 967 1 
1090 3459 3957 2 
1091 3460 3459 1 
1092 3944 3714 3 
1093 3976 3460 3 
1094 3714 3713 1 
1095 4211 4465 2 
1096 4465 4466 1 
1097 4438 4206 3 
1098 4438 4437 1 
1099 4438 4474 3 
1100 4988 4438 3 
1101 4988 4987 1 
1102 4206 4988 3 
1103 4206 4205 1 
1104 4474 4206 3 
1105 4474 4473 1 
1106 4474 4988 3 
1107 5678 5677 1 
1108 5714 5713 1 
1109 5724 5714 3 
1110 232 466 3 
1111 232 231 1 
1112 466 5464 3 
1113 466 465 1 
1114 5464 232 3 
1115 5464 5463 1 
1116 437 438 1 
1117 5463 5937 2 
1118 1725 1726 1 
1119 1488 1487 1 
1120 1476 1488 3 
1121 1211 1212 1 
1122 1211 1221 2 
1123 2236 2730 3 
1124 2236 2235 1 
1125 1459 1709 2 
1126 1491 1735 2 
1127 1460 2216 3 
1128 1460 1459 1 
1129 1982 1460 3 
1130 1982 1981 1 
1131 1982 2462 3 
1132 2216 1982 3 
1133 2216 2215 1 
1134 2230 2462 3 
1135 2461 2462 1 
1136 2211 2461 2 
1137 3749 3750 1 
1138 3465 3749 2 
1139 4479 4713 2 
1140 4969 4987 2 
1141 4259 4721 2 
1142 5510 5509 1 
1143 4978 5510 3 
1144 5713 6005 2 
1145 5995 5996 1 
1146 231 5973 2 
1147 5456 4998 3 
1148 5456 5455 1 
1149 6000 5456 3 
1150 6000 5999 1 
1151 2 4998 3 
1152 2 1 1 
1153 2 6000 3 
1154 2 5456 3 
1155 750 734 3 
1156 750 749 1 
1157 217 1951 2 
1158 1951 1952 1 
1159 1475 1476 1 
1160 469 737 2 
1161 1247 1475 2 
1162 1223 1257 2 
1163 1224 1730 3 
1164 1224 1223 1 
1165 1730 736 3 
1166 1730 1729 1 
1167 1729 2229 2 
1168 1993 1994 1 
1169 1993 2729 2 
1170 1498 1994 3 
1171 1498 2240 3 
1172 1994 2240 3 
1173 1219 1497 2 
1174 1717 1718 1 
1175 2229 2230 1 
1176 1481 2239 2 
1177 2240 2239 1 
1178 2972 2242 3 
1179 2972 2971 1 
1180 3447 3448 1 
1181 2490 2489 1 
1182 2223 3447 2 
1183 2248 2490 3 
1184 2733 2985 2 
1185 2733 2734 1 
1186 2976 3464 3 
1187 3464 3463 1 
1188 3466 3762 3 
1189 3466 3465 1 
1190 4464 3466 3 
1191 4464 4463 1 
1192 3762 4464 3 
1193 3762 3761 1 
1194 4983 4984 1 
1195 4983 4253 2 
1196 4254 4253 1 
1197 4984 4254 3 
1198 4711 4712 1 
1199 4015 4016 1 
1200 4251 4711 2 
1201 4251 4252 1 
1202 4480 4260 3 
1203 4480 4479 1 
1204 4970 4480 3 
1205 4970 4969 1 
1206 4260 4970 3 
1207 4260 4259 1 
1208 5222 4722 3 
1209 5222 5221 1 
1210 4722 4990 3 
1211 4722 4721 1 
1212 4284 5222 3 
1213 4284 4283 1 
1214 4284 4722 3 
1215 4284 4990 3 
1216 13 229 2 
1217 4998 6000 3 
1218 4998 4997 1 
1219 254 508 3 
1220 254 253 1 
1221 508 5982 3 
1222 508 507 1 
1223 266 265 1 
1224 5732 266 3 
1225 245 246 1 
1226 245 1005 2 
1227 243 475 2 
1228 1004 750 3 
1229 1004 1003 1 
1230 734 1004 3 
1231 734 733 1 
1232 475 476 1 
1233 260 259 1 
1234 5 733 2 
1235 6 5 1 
1236 1718 2240 3 
1237 1503 2761 2 
1238 1995 2745 2 
1239 2745 2746 1 
1240 2251 2489 2 
1241 1996 1995 1 
1242 2247 2248 1 
1243 4493 4735 2 
1244 4735 4736 1 
1245 4223 4224 1 
1246 4762 5242 3 
1247 4762 4761 1 
1248 4757 4758 1 
1249 4975 4976 1 
1250 4283 4975 2 
1251 5731 5732 1 
1252 5982 254 3 
1253 5982 5981 1 
1254 6025 6026 1 
1255 5981 6007 2 
1256 29 251 2 
1257 6038 6037 1 
1258 6008 6224 3 
1259 6008 6007 1 
1260 250 6008 3 
1261 250 249 1 
1262 250 1006 3 
1263 1006 6224 3 
1264 1006 1005 1 
1265 1006 6008 3 
1266 6224 250 3 
1267 6224 6223 1 
1268 6016 520 3 
1269 6016 6015 1 
1270 525 526 1 
1271 753 754 1 
1272 259 753 2 
1273 234 233 1 
1274 516 284 3 
1275 754 756 3 
1276 756 755 1 
1277 1030 782 3 
1278 1030 1029 1 
1279 233 269 2 
1280 1276 1030 3 
1281 1276 1275 1 
1282 1242 486 3 
1283 1012 782 3 
1284 1012 1011 1 
1285 1012 1030 3 
1286 1012 1276 3 
1287 486 485 1 
1288 1737 1738 1 
1289 1042 1244 3 
1290 1042 1041 1 
1291 1011 1483 2 
1292 1483 1484 1 
1293 297 298 1 
1294 297 1749 2 
1295 1241 1242 1 
1296 1002 1020 3 
1297 1002 1001 1 
1298 1002 1758 3 
1299 1758 1020 3 
1300 1758 1757 1 
1301 1279 2019 2 
1302 981 1235 2 
1303 981 982 1 
1304 1020 536 3 
1305 1020 1019 1 
1306 1280 1786 3 
1307 1280 1279 1 
1308 1786 1008 3 
1309 1786 1785 1 
1310 1508 1280 3 
1311 1508 1507 1 
1312 1508 1786 3 
1313 1008 1280 3 
1314 1008 1007 1 
1315 1008 1508 3 
1316 1747 1757 2 
1317 2012 1748 3 
1318 2012 2011 1 
1319 2049 2050 1 
1320 1748 1766 3 
1321 1748 1747 1 
1322 1766 1724 3 
1323 1766 1765 1 
1324 1766 2012 3 
1325 1724 1748 3 
1326 1724 1723 1 
1327 1724 2012 3 
1328 2770 2294 3 
1329 2770 2769 1 
1330 1751 1752 1 
1331 1751 2769 2 
1332 1723 2253 2 
1333 2253 2254 1 
1334 2011 2741 2 
1335 2741 2742 1 
1336 2785 2786 1 
1337 2280 2279 1 
1338 2280 2492 3 
1339 2280 2786 3 
1340 2495 2496 1 
1341 2754 2276 3 
1342 2754 2753 1 
1343 2508 2276 3 
1344 2508 2507 1 
1345 2508 2754 3 
1346 3223 3224 1 
1347 2018 2508 3 
1348 2018 2017 1 
1349 2018 2754 3 
1350 2276 2018 3 
1351 2276 2275 1 
1352 2992 2778 3 
1353 2992 2991 1 
1354 2992 3002 3 
1355 2778 3006 3 
1356 2778 2777 1 
1357 3002 2778 3 
1358 3002 3001 1 
1359 3002 3006 3 
1360 3006 2992 3 
1361 3006 3005 1 
1362 3010 3986 3 
1363 3010 3009 1 
1364 3262 3788 3 
1365 3262 3261 1 
1366 2518 3262 3 
1367 2518 2517 1 
1368 2518 3788 3 
1369 3986 3510 3 
1370 3986 3985 1 
1371 3510 3010 3 
1372 3510 3509 1 
1373 3788 2262 3 
1374 3788 3787 1 
1375 3004 3030 3 
1376 3004 3003 1 
1377 3760 3238 3 
1378 3760 3759 1 
1379 3518 3246 3 
1380 3030 3756 3 
1381 3030 3029 1 
1382 3303 3304 1 
1383 3503 3504 1 
1384 3769 4503 2 
1385 3991 3992 1 
1386 4285 4286 1 
1387 4017 4285 2 
1388 3281 3282 1 
1389 3281 3991 2 
1390 3505 3765 2 
1391 4237 4238 1 
1392 4794 4728 3 
1393 4794 4793 1 
1394 4785 4786 1 
1395 4529 4530 1 
1396 4007 4008 1 
1397 4007 4785 2 
1398 4235 4236 1 
1399 4235 4461 2 
1400 4728 4268 3 
1401 4728 4727 1 
1402 4498 4728 3 
1403 4498 4497 1 
1404 4498 4794 3 
1405 4268 4498 3 
1406 4268 4267 1 
1407 4268 4794 3 
1408 4245 4529 2 
1409 4462 4461 1 
1410 4748 4462 3 
1411 4758 4724 3 
1412 4724 4723 1 
1413 4509 4727 2 
1414 5259 5260 1 
1415 5259 5737 2 
1416 5481 5482 1 
1417 5249 5250 1 
1418 5249 5481 2 
1419 5530 4776 3 
1420 5530 5529 1 
1421 4515 4741 2 
1422 5526 5738 3 
1423 5526 5525 1 
1424 5526 5744 3 
1425 5744 5738 3 
1426 5744 5743 1 
1427 5738 4494 3 
1428 5738 5737 1 
1429 5520 5519 1 
1430 4494 5744 3 
1431 4494 4493 1 
1432 4494 5526 3 
1433 4510 5530 3 
1434 4510 4509 1 
1435 4776 4510 3 
1436 4776 4775 1 
1437 5508 4994 3 
1438 5983 5984 1 
1439 4994 4993 1 
1440 4729 4993 2 
1441 5496 5520 3 
1442 5014 5502 3 
1443 5502 5501 1 
1444 5764 4782 3 
1445 5764 5763 1 
1446 4782 5006 3 
1447 4782 4781 1 
1448 5006 5764 3 
1449 5006 5005 1 
1450 5770 5512 3 
1451 5770 5769 1 
1452 5255 5747 2 
1453 6034 500 3 
1454 6034 6033 1 
1455 27 28 1 
1456 27 6033 2 
1457 5795 5796 1 
1458 23 24 1 
1459 5784 6038 3 
1460 5512 6020 3 
1461 5512 5511 1 
1462 6020 5770 3 
1463 6020 6019 1 
1464 5783 5795 2 
1465 5783 5784 1 
1466 5734 5472 3 
1467 5734 5733 1 
1468 5734 6232 3 
1469 5748 5734 3 
1470 5748 5747 1 
1471 5748 6232 3 
1472 6232 5472 3 
1473 6232 6231 1 
1474 5472 5748 3 
1475 5472 5471 1 
1476 15 499 2 
1477 239 240 1 
1478 249 5517 2 
1479 5766 5765 1 
1480 5766 6242 3 
1481 21 22 1 
1482 21 511 2 
1483 34 248 3 
1484 34 33 1 
1485 34 6022 3 
1486 248 12 3 
1487 248 247 1 
1488 6022 248 3 
1489 6022 6021 1 
1490 268 1024 3 
1491 1024 1023 1 
1492 6241 6242 1 
1493 257 6241 2 
1494 257 258 1 
1495 25 26 1 
1496 787 788 1 
1497 787 1029 2 
1498 763 764 1 
1499 501 502 1 
1500 33 501 2 
1501 764 310 3 
1502 782 1276 3 
1503 782 781 1 
1504 284 283 1 
1505 269 270 1 
1506 747 748 1 
1507 502 1022 3 
1508 3 747 2 
1509 272 1036 3 
1510 272 271 1 
1511 781 1523 2 
1512 1021 1022 1 
1513 535 1021 2 
1514 536 1002 3 
1515 536 535 1 
1516 536 1758 3 
1517 1780 1034 3 
1518 1780 1779 1 
1519 1746 1034 3 
1520 1746 1745 1 
1521 1746 1780 3 
1522 1746 2020 3 
1523 2020 1780 3 
1524 2020 2019 1 
1525 1034 2020 3 
1526 1034 1033 1 
1527 2002 2486 3 
1528 2266 2770 3 
1529 2266 2265 1 
1530 2274 2266 3 
1531 2274 2273 1 
1532 2274 2294 3 
1533 2274 2770 3 
1534 2294 2266 3 
1535 2294 2293 1 
1536 2486 2485 1 
1537 2486 2774 3 
1538 2525 2785 2 
1539 2525 2526 1 
1540 2740 2739 1 
1541 2740 2982 3 
1542 2504 2740 3 
1543 2504 2982 3 
1544 2982 2981 1 
1545 2764 2763 1 
1546 3261 3545 2 
1547 1519 2275 2 
1548 3020 2798 3 
1549 3020 3019 1 
1550 3020 3546 3 
1551 3020 3026 3 
1552 3546 3026 3 
1553 3546 3545 1 
1554 2017 2513 2 
1555 3026 2798 3 
1556 3026 3025 1 
1557 2286 2540 3 
1558 2286 2285 1 
1559 3268 2768 3 
1560 3268 3267 1 
1561 3495 3496 1 
1562 2262 3262 3 
1563 2262 2261 1 
1564 2262 2518 3 
1565 2768 2792 3 
1566 2768 2767 1 
1567 4258 3522 3 
1568 3271 3495 2 
1569 3522 3521 1 
1570 2792 3268 3 
1571 2792 2791 1 
1572 2261 2771 2 
1573 3264 3538 3 
1574 3264 3263 1 
1575 3264 3272 3 
1576 3034 3264 3 
1577 3034 3033 1 
1578 3550 3549 1 
1579 3304 3550 3 
1580 3287 3521 2 
1581 3538 3034 3 
1582 3538 3537 1 
1583 3272 3034 3 
1584 3272 3271 1 
1585 3272 3538 3 
1586 3790 3534 3 
1587 3790 3789 1 
1588 3534 3316 3 
1589 3534 3533 1 
1590 2524 3534 3 
1591 2524 2523 1 
1592 2524 3790 3 
1593 3316 2524 3 
1594 3316 3315 1 
1595 3316 3790 3 
1596 3029 4023 2 
1597 3543 3811 2 
1598 3763 3764 1 
1599 3809 3810 1 
1600 3992 3502 3 
1601 3502 3501 1 
1602 3273 3809 2 
1603 4524 4523 1 
1604 3540 4524 3 
1605 3778 3777 1 
1606 4028 3544 3 
1607 4028 4027 1 
1608 3014 3544 3 
1609 3014 3013 1 
1610 3014 4028 3 
1611 3014 4046 3 
1612 4046 4028 3 
1613 4046 4045 1 
1614 3544 4046 3 
1615 3544 3543 1 
1616 3527 3528 1 
1617 3527 3777 2 
1618 3764 3778 3 
1619 3013 4513 2 
1620 4271 4743 2 
1621 4047 4499 2 
1622 4246 4526 3 
1623 4246 4245 1 
1624 4246 4274 3 
1625 4788 4246 3 
1626 4788 4787 1 
1627 4274 4788 3 
1628 4274 4273 1 
1629 4274 4526 3 
1630 4526 4788 3 
1631 4526 4525 1 
1632 3771 3772 1 
1633 3771 4723 2 
1634 4261 4267 2 
1635 4031 4032 1 
1636 4273 5297 2 
1637 5011 5012 1 
1638 4775 5011 2 
1639 5507 5508 1 
1640 4262 4516 3 
1641 4262 4261 1 
1642 4780 4262 3 
1643 4780 4779 1 
1644 4516 4780 3 
1645 4516 4515 1 
1646 5013 5014 1 
1647 4773 5013 2 
1648 4781 5529 2 
1649 5495 5496 1 
1650 5269 5495 2 
1651 5001 5263 2 
1652 5015 5519 2 
1653 5533 5534 1 
1654 4753 5533 2 
1655 5767 5768 1 
1656 500 16 3 
1657 500 499 1 
1658 5762 5004 3 
1659 5762 5761 1 
1660 4766 5762 3 
1661 4766 4765 1 
1662 6032 5774 3 
1663 6032 6031 1 
1664 16 6034 3 
1665 16 15 1 
1666 5004 4766 3 
1667 5004 5003 1 
1668 5774 6024 3 
1669 5774 5773 1 
1670 247 5753 2 
1671 5800 5774 3 
1672 5800 5799 1 
1673 5800 6032 3 
1674 6024 5800 3 
1675 6024 6023 1 
1676 6024 6032 3 
1677 5003 5515 2 
1678 6023 6037 2 
1679 5515 5516 1 
1680 1015 1016 1 
1681 279 280 1 
1682 12 34 3 
1683 12 11 1 
1684 12 6022 3 
1685 258 38 3 
1686 271 763 2 
1687 788 514 3 
1688 514 513 1 
1689 38 37 1 
1690 521 1067 2 
1691 1067 1068 1 
1692 37 6039 2 
1693 554 546 3 
1694 554 553 1 
1695 281 282 1 
1696 281 785 2 
1697 792 554 3 
1698 792 791 1 
1699 1032 1038 3 
1700 1032 1031 1 
1701 772 1032 3 
1702 772 771 1 
1703 1038 772 3 
1704 1038 1037 1 
1705 1031 1039 2 
1706 1536 1268 3 
1707 1536 1535 1 
1708 1760 1536 3 
1709 1760 1759 1 
1710 1743 1744 1 
1711 1556 1558 3 
1712 1556 1555 1 
1713 1511 1512 1 
1714 1511 1743 2 
1715 1558 1546 3 
1716 1558 1557 1 
1717 1278 1268 3 
1718 1278 1277 1 
1719 1278 1760 3 
1720 1278 1536 3 
1721 1268 1760 3 
1722 1268 1267 1 
1723 1521 1522 1 
1724 1283 1521 2 
1725 2014 1056 3 
1726 2014 2013 1 
1727 1546 1556 3 
1728 1546 1545 1 
1729 1056 1266 3 
1730 1056 1055 1 
1731 1266 2014 3 
1732 1266 1265 1 
1733 2062 1284 3 
1734 2062 2061 1 
1735 1802 2062 3 
1736 1802 1801 1 
1737 1528 2062 3 
1738 1528 1527 1 
1739 1528 1802 3 
1740 1284 1528 3 
1741 1284 1283 1 
1742 1284 1802 3 
1743 1778 1292 3 
1744 1778 1777 1 
1745 1292 2284 3 
1746 1292 1291 1 
1747 2284 1778 3 
1748 2284 2283 1 
1749 1265 2273 2 
1750 2526 2764 3 
1751 1773 2297 2 
1752 2297 2298 1 
1753 2301 2302 1 
1754 2301 2797 2 