ITEM: TIMESTEP
106480
ITEM: NUMBER OF ENTRIES
8228
ITEM: BOX BOUNDS pp pp ff
0.0000000000000000e+00 7.2168784000000002e+01
0.0000000000000000e+00 7.2168784000000002e+01
0.0000000000000000e+00 1.2000000000000000e+01
ITEM: ENTRIES index c_1[1] c_1[2] c_1[3]
1 5732 266 3 
2 266 265 1 
3 248 12 3 
4 248 247 1 
5 244 243 1 
6 6002 244 3 
7 1245 1246 1 
8 983 1245 2 
9 3017 3018 1 
10 2481 2482 1 
11 2481 3017 2 
12 3018 2760 3 
13 2760 2759 1 
14 3268 2768 3 
15 3268 3267 1 
16 2508 2276 3 
17 2508 2507 1 
18 2508 2754 3 
19 2732 1504 3 
20 2732 2731 1 
21 2732 2762 3 
22 2252 2732 3 
23 2252 2251 1 
24 2252 2762 3 
25 2762 1504 3 
26 2762 2761 1 
27 2518 3262 3 
28 2518 2517 1 
29 2518 3788 3 
30 2262 3262 3 
31 2262 2261 1 
32 2262 2518 3 
33 3788 2262 3 
34 3788 3787 1 
35 1504 2252 3 
36 1504 1503 1 
37 2251 2489 2 
38 2223 3447 2 
39 3262 3788 3 
40 3262 3261 1 
41 2261 2771 2 
42 4500 4276 3 
43 4500 4499 1 
44 4048 4500 3 
45 4048 4047 1 
46 4276 4048 3 
47 4276 4275 1 
48 529 530 1 
49 285 1275 2 
50 286 272 3 
51 286 285 1 
52 272 1036 3 
53 272 271 1 
54 272 282 3 
55 282 286 3 
56 282 281 1 
57 282 1036 3 
58 271 763 2 
59 6001 6002 1 
60 6001 6009 2 
61 763 764 1 
62 1259 1269 2 
63 1260 722 3 
64 1260 1259 1 
65 521 1067 2 
66 2024 2023 1 
67 1744 2024 3 
68 2525 2785 2 
69 2486 2485 1 
70 2486 2774 3 
71 2002 2486 3 
72 2002 2774 3 
73 2526 2764 3 
74 2526 2525 1 
75 2785 2786 1 
76 2298 2526 3 
77 2298 2297 1 
78 2298 2774 3 
79 2764 2298 3 
80 2764 2763 1 
81 2759 3251 2 
82 1519 2275 2 
83 1520 2296 3 
84 1520 1519 1 
85 1520 2818 3 
86 2511 2512 1 
87 2511 2767 2 
88 2512 2530 3 
89 2512 2522 3 
90 2522 2532 3 
91 2522 2772 3 
92 2532 2772 3 
93 2532 2531 1 
94 2772 2530 3 
95 2772 2771 1 
96 2530 2532 3 
97 2530 2529 1 
98 3022 3021 1 
99 3496 3022 3 
100 2037 2527 2 
101 2527 2528 1 
102 2302 2512 3 
103 2302 3496 3 
104 2302 3022 3 
105 2777 3787 2 
106 4264 5036 3 
107 4264 4263 1 
108 4264 4534 3 
109 4047 4499 2 
110 4020 4244 3 
111 4244 4243 1 
112 5550 5074 3 
113 4007 4785 2 
114 4736 5244 3 
115 27 6033 2 
116 1036 286 3 
117 1036 1035 1 
118 5766 5765 1 
119 5766 6242 3 
120 512 511 1 
121 512 274 3 
122 512 5766 3 
123 22 512 3 
124 22 274 3 
125 22 6242 3 
126 274 273 1 
127 274 6010 3 
128 6010 6009 1 
129 6010 5766 3 
130 6242 6010 3 
131 19 39 2 
132 19 20 1 
133 792 554 3 
134 792 791 1 
135 792 1068 3 
136 546 792 3 
137 546 545 1 
138 546 1068 3 
139 1035 1329 2 
140 554 546 3 
141 554 553 1 
142 554 1068 3 
143 1038 772 3 
144 1038 1037 1 
145 1278 1268 3 
146 1278 1277 1 
147 1278 1760 3 
148 1278 1536 3 
149 1536 1268 3 
150 1536 1535 1 
151 1760 1536 3 
152 1760 1759 1 
153 1268 1760 3 
154 1268 1267 1 
155 1281 1541 2 
156 1773 2297 2 
157 2296 2314 3 
158 2296 2295 1 
159 2818 2296 3 
160 2818 2817 1 
161 2314 1520 3 
162 2314 2313 1 
163 2314 2818 3 
164 2001 2002 1 
165 2001 2485 2 
166 2271 2763 2 
167 2313 2775 2 
168 3252 2282 3 
169 3252 3251 1 
170 1784 3252 3 
171 1784 1783 1 
172 2282 1784 3 
173 2282 2281 1 
174 2281 2529 2 
175 1783 3035 2 
176 4282 4264 3 
177 4282 4281 1 
178 4282 4534 3 
179 3992 3502 3 
180 4801 4802 1 
181 3502 3501 1 
182 3805 3806 1 
183 3540 4524 3 
184 4011 4012 1 
185 4281 4787 2 
186 4079 4539 2 
187 5549 5550 1 
188 4019 4020 1 
189 5244 5243 1 
190 5538 6048 3 
191 5538 5537 1 
192 5988 5034 3 
193 5988 5987 1 
194 6050 5988 3 
195 6050 6049 1 
196 5034 6050 3 
197 5034 5033 1 
198 21 22 1 
199 21 511 2 
200 550 549 1 
201 527 549 2 
202 1031 1039 2 
203 1267 1549 2 
204 1290 1792 3 
205 1290 1289 1 
206 1290 1542 3 
207 2308 1290 3 
208 2308 2307 1 
209 1792 2308 3 
210 1792 1791 1 
211 1542 1792 3 
212 1542 1541 1 
213 1542 2308 3 
214 2546 2272 3 
215 2272 2271 1 
216 1289 2283 2 
217 2545 2546 1 
218 1515 1516 1 
219 1515 2801 2 
220 1516 2802 3 
221 2802 2801 1 
222 3031 3309 2 
223 4554 4553 1 
224 4802 4554 3 
225 5332 5294 3 
226 5332 5331 1 
227 5536 5332 3 
228 5536 5535 1 
229 4014 5536 3 
230 4014 4013 1 
231 4014 5332 3 
232 4014 5294 3 
233 4803 5797 2 
234 5262 5538 3 
235 5262 5261 1 
236 6048 5262 3 
237 6048 6047 1 
238 4765 5537 2 
239 5551 6049 2 
240 5821 5822 1 
241 5033 5799 2 
242 538 6044 3 
243 538 537 1 
244 322 538 3 
245 322 321 1 
246 322 784 3 
247 784 538 3 
248 784 783 1 
249 784 6044 3 
250 6044 322 3 
251 6044 6043 1 
252 537 5779 2 
253 5838 5837 1 
254 5822 5838 3 
255 798 314 3 
256 798 797 1 
257 70 798 3 
258 70 69 1 
259 70 72 3 
260 314 70 3 
261 314 313 1 
262 72 314 3 
263 72 71 1 
264 72 798 3 
265 41 321 2 
266 1018 1040 3 
267 1018 1017 1 
268 1018 1534 3 
269 1301 1569 2 
270 1570 1554 3 
271 1570 1569 1 
272 1570 2542 3 
273 2542 1554 3 
274 2542 2541 1 
275 1532 1570 3 
276 1532 1531 1 
277 1532 2542 3 
278 1302 1540 3 
279 1302 1301 1 
280 1540 1572 3 
281 1540 1539 1 
282 1572 1302 3 
283 1572 1571 1 
284 2315 2316 1 
285 1554 1532 3 
286 1554 1553 1 
287 1064 1572 3 
288 1064 1063 1 
289 1064 1540 3 
290 1064 1302 3 
291 1333 2307 2 
292 1824 1800 3 
293 1824 1823 1 
294 1571 1781 2 
295 2022 1824 3 
296 2022 2021 1 
297 2022 2292 3 
298 2054 2332 3 
299 2054 2053 1 
300 2332 1334 3 
301 2332 2331 1 
302 2813 3085 2 
303 1321 2545 2 
304 2066 3330 3 
305 2066 2065 1 
306 2066 2346 3 
307 2346 3330 3 
308 2346 2345 1 
309 2346 2814 3 
310 3840 3602 3 
311 3840 3839 1 
312 3602 3832 3 
313 3602 3601 1 
314 3832 3840 3 
315 3832 3831 1 
316 3563 3831 2 
317 3068 3564 3 
318 3068 3067 1 
319 3068 3814 3 
320 3564 3298 3 
321 3564 3563 1 
322 3298 3068 3 
323 3298 3297 1 
324 3298 3814 3 
325 3291 3299 2 
326 3067 3321 2 
327 3792 3292 3 
328 3792 3791 1 
329 3292 3310 3 
330 3292 3291 1 
331 3310 3792 3 
332 3310 3309 1 
333 3859 4075 2 
334 3859 3860 1 
335 5044 5302 3 
336 5044 5043 1 
337 5043 5317 2 
338 5543 5544 1 
339 353 5541 2 
340 5805 6043 2 
341 5820 5552 3 
342 5820 5819 1 
343 5552 5542 3 
344 5552 5551 1 
345 5542 5820 3 
346 5542 5541 1 
347 5825 6063 2 
348 5559 6053 2 
349 5318 5317 1 
350 5544 5318 3 
351 324 76 3 
352 324 323 1 
353 324 562 3 
354 562 300 3 
355 562 561 1 
356 76 562 3 
357 76 75 1 
358 300 76 3 
359 300 299 1 
360 300 324 3 
361 75 6093 2 
362 1332 1066 3 
363 1332 1331 1 
364 836 1332 3 
365 836 835 1 
366 1066 836 3 
367 1066 1065 1 
368 1096 1095 1 
369 1800 2292 3 
370 1800 1799 1 
371 1800 2022 3 
372 2292 1824 3 
373 2292 2291 1 
374 2291 2353 2 
375 1799 2069 2 
376 2353 2354 1 
377 3086 2844 3 
378 3086 3085 1 
379 2562 3086 3 
380 2562 2561 1 
381 2562 3074 3 
382 2844 2562 3 
383 2844 2843 1 
384 2844 3074 3 
385 3074 3086 3 
386 3074 3073 1 
387 3351 3352 1 
388 3541 3791 2 
389 2821 3317 2 
390 4086 3332 3 
391 4086 4085 1 
392 4086 4588 3 
393 3607 3813 2 
394 3063 3569 2 
395 3332 4588 3 
396 3332 3331 1 
397 3776 3332 3 
398 3776 3775 1 
399 3776 4086 3 
400 4588 3776 3 
401 4588 4587 1 
402 4076 3064 3 
403 4076 4075 1 
404 2788 4076 3 
405 2788 2787 1 
406 3064 2788 3 
407 3064 3063 1 
408 3331 3567 2 
409 4292 3568 3 
410 4292 4291 1 
411 4292 4300 3 
412 4300 4058 3 
413 4300 4299 1 
414 4058 4292 3 
415 4058 4057 1 
416 3568 4058 3 
417 3568 3567 1 
418 3568 4300 3 
419 3579 3821 2 
420 3579 3580 1 
421 5301 6087 2 
422 5814 5044 3 
423 5814 5813 1 
424 5814 5830 3 
425 5830 5044 3 
426 5830 5829 1 
427 5302 5814 3 
428 5302 5301 1 
429 5302 5830 3 
430 5567 5781 2 
431 5781 5782 1 
432 5819 6083 2 
433 783 5777 2 
434 5568 5560 3 
435 5568 5567 1 
436 5560 5808 3 
437 5560 5559 1 
438 5560 5794 3 
439 308 307 1 
440 355 356 1 
441 337 355 2 
442 1637 1638 1 
443 1101 1637 2 
444 581 1065 2 
445 827 1095 2 
446 1313 1807 2 
447 2057 2309 2 
448 1790 2058 3 
449 1790 1789 1 
450 1790 2354 3 
451 2058 2306 3 
452 2058 2057 1 
453 2058 3352 3 
454 3038 3037 1 
455 2070 2069 1 
456 2070 3352 3 
457 2306 1790 3 
458 2306 2305 1 
459 2306 3352 3 
460 2312 2311 1 
461 2354 2582 3 
462 2354 3038 3 
463 2824 3038 3 
464 1826 2070 3 
465 1808 1807 1 
466 2046 2312 3 
467 2046 2582 3 
468 1825 1845 2 
469 1825 1826 1 
470 1845 1846 1 
471 2071 2311 2 
472 2580 2579 1 
473 1846 2580 3 
474 2794 3554 3 
475 2794 2793 1 
476 2820 2794 3 
477 2820 2819 1 
478 3308 3307 1 
479 3050 3308 3 
480 3608 2036 3 
481 3608 3607 1 
482 3324 3848 3 
483 3324 3323 1 
484 3830 3324 3 
485 3830 3829 1 
486 3848 3830 3 
487 3848 3847 1 
488 3343 3353 2 
489 4291 4587 2 
490 3323 3775 2 
491 3584 3583 1 
492 3583 3599 2 
493 3575 3815 2 
494 3822 4572 3 
495 3822 3821 1 
496 3822 4610 3 
497 3850 3822 3 
498 3850 3849 1 
499 3850 4610 3 
500 4610 4572 3 
501 4610 4609 1 
502 4572 3850 3 
503 4572 4571 1 
504 4321 4351 2 
505 3836 4544 3 
506 3836 3835 1 
507 4798 3836 3 
508 4798 4797 1 
509 4544 4798 3 
510 4544 4543 1 
511 6084 5816 3 
512 6084 6083 1 
513 5610 74 3 
514 5610 5609 1 
515 5610 5816 3 
516 5610 6084 3 
517 303 304 1 
518 303 5609 2 
519 6106 98 3 
520 6106 6105 1 
521 81 82 1 
522 81 563 2 
523 1148 1147 1 
524 97 331 2 
525 82 564 3 
526 82 840 3 
527 564 563 1 
528 564 840 3 
529 840 839 1 
530 839 1337 2 
531 842 1582 3 
532 842 841 1 
533 842 848 3 
534 817 2319 2 
535 2319 2320 1 
536 841 843 2 
537 1551 1552 1 
538 1551 2599 2 
539 1600 1599 1 
540 1600 2064 3 
541 1600 2368 3 
542 2064 2368 3 
543 2064 2120 3 
544 2110 2340 3 
545 2110 2109 1 
546 2110 2610 3 
547 2110 2360 3 
548 2828 3604 3 
549 2828 2827 1 
550 1599 2831 2 
551 3044 2828 3 
552 3044 3043 1 
553 3604 3044 3 
554 3604 3603 1 
555 2360 2610 3 
556 2360 2359 1 
557 2610 2340 3 
558 2610 2609 1 
559 2340 2360 3 
560 2340 2339 1 
561 2337 2338 1 
562 2337 2827 2 
563 2338 2072 3 
564 2805 2806 1 
565 2805 3603 2 
566 2555 2579 2 
567 2072 2071 1 
568 2568 2567 1 
569 3554 2820 3 
570 3554 3553 1 
571 3354 3338 3 
572 3354 3353 1 
573 3596 3584 3 
574 3338 2834 3 
575 3338 3337 1 
576 2834 3354 3 
577 2834 2833 1 
578 4117 4341 2 
579 4309 4543 2 
580 3849 4601 2 
581 4601 4602 1 
582 4105 4609 2 
583 3834 4114 3 
584 4332 4100 3 
585 4332 4331 1 
586 115 857 2 
587 5619 5847 2 
588 1834 1108 3 
589 1834 1833 1 
590 1354 1108 3 
591 1354 1353 1 
592 1354 1834 3 
593 1634 1338 3 
594 1634 1633 1 
595 862 1354 3 
596 862 861 1 
597 862 1834 3 
598 1108 862 3 
599 1108 1107 1 
600 1338 1114 3 
601 1338 1337 1 
602 812 1338 3 
603 812 811 1 
604 812 1634 3 
605 1114 812 3 
606 1114 1113 1 
607 1114 1634 3 
608 1081 1082 1 
609 1081 1833 2 
610 1084 842 3 
611 1084 1083 1 
612 1582 1084 3 
613 1582 1581 1 
614 1595 2099 2 
615 1810 2090 3 
616 1810 1809 1 
617 2320 1600 3 
618 2320 2368 3 
619 818 1098 3 
620 818 817 1 
621 2074 1810 3 
622 2074 2073 1 
623 2120 818 3 
624 2120 2119 1 
625 1098 2120 3 
626 1098 1097 1 
627 2566 2565 1 
628 1850 2566 3 
629 1812 1810 3 
630 1812 1811 1 
631 1812 2074 3 
632 1812 2090 3 
633 2090 2074 3 
634 2090 2089 1 
635 2601 2609 2 
636 1097 2565 2 
637 2109 2607 2 
638 2095 2096 1 
639 2095 2591 2 
640 2862 3084 3 
641 2862 2861 1 
642 2826 2862 3 
643 2826 2825 1 
644 1345 2339 2 
645 3084 2826 3 
646 3084 3083 1 
647 2096 2366 3 
648 2366 2365 1 
649 2363 2861 2 
650 2611 3083 2 
651 2611 2612 1 
652 2364 2864 3 
653 2364 2363 1 
654 2364 2894 3 
655 2864 2894 3 
656 2864 2863 1 
657 2894 2342 3 
658 2894 2893 1 
659 2342 2864 3 
660 2342 2341 1 
661 2342 2364 3 
662 3092 3606 3 
663 3092 3091 1 
664 3864 3092 3 
665 3864 3863 1 
666 3606 3864 3 
667 3606 3605 1 
668 4342 4122 3 
669 4342 4822 3 
670 4342 4341 1 
671 4822 4346 3 
672 4822 4821 1 
673 4122 4822 3 
674 4122 4346 3 
675 4122 4121 1 
676 4346 4342 3 
677 4346 4345 1 
678 4087 4093 2 
679 4100 4856 3 
680 4100 4099 1 
681 4324 4100 3 
682 4324 4323 1 
683 4324 4332 3 
684 4324 4856 3 
685 4856 4332 3 
686 4856 4855 1 
687 4340 4604 3 
688 4340 4339 1 
689 4604 5346 3 
690 4604 4603 1 
691 5346 4340 3 
692 5346 5345 1 
693 4323 5349 2 
694 5349 5350 1 
695 5079 5345 2 
696 5574 5094 3 
697 5574 5573 1 
698 5092 5376 3 
699 5092 5091 1 
700 5092 5106 3 
701 4580 5092 3 
702 4580 4579 1 
703 5376 4580 3 
704 5376 5375 1 
705 5106 4580 3 
706 5106 5105 1 
707 5106 5376 3 
708 5094 5348 3 
709 5094 5093 1 
710 5102 5094 3 
711 5102 5101 1 
712 5102 5574 3 
713 5348 5102 3 
714 5348 5347 1 
715 5348 5574 3 
716 5135 5347 2 
717 58 588 3 
718 58 57 1 
719 116 115 1 
720 90 116 3 
721 864 616 3 
722 864 863 1 
723 2073 2879 2 
724 2879 2880 1 
725 2880 870 3 
726 870 869 1 
727 1606 1630 3 
728 1606 1605 1 
729 2602 1606 3 
730 2602 2601 1 
731 1811 2623 2 
732 1836 1606 3 
733 1836 1835 1 
734 1836 2602 3 
735 1630 1836 3 
736 1630 1629 1 
737 1630 2602 3 
738 1849 1850 1 
739 1589 1849 2 
740 1617 2855 2 
741 2624 2344 3 
742 2624 2623 1 
743 2344 2850 3 
744 2344 2343 1 
745 2344 2608 3 
746 2608 2624 3 
747 2608 2607 1 
748 2608 2850 3 
749 2850 2624 3 
750 2850 2849 1 
751 1857 3099 2 
752 3100 2854 3 
753 2854 2853 1 
754 2825 3339 2 
755 2365 2595 2 
756 2595 2596 1 
757 3180 3179 1 
758 4121 4607 2 
759 3625 3626 1 
760 3625 3851 2 
761 3862 3624 3 
762 3624 3623 1 
763 3861 3862 1 
764 3861 4345 2 
765 6116 5626 3 
766 5626 5625 1 
767 5843 6115 2 
768 6115 6116 1 
769 5890 900 3 
770 5890 5889 1 
771 612 5890 3 
772 612 611 1 
773 900 612 3 
774 900 899 1 
775 1432 1356 3 
776 1432 1431 1 
777 1356 1106 3 
778 1356 1355 1 
779 1106 1432 3 
780 1106 1105 1 
781 2376 1862 3 
782 2376 2375 1 
783 2616 2856 3 
784 2616 2615 1 
785 1858 1857 1 
786 1858 3340 3 
787 1858 2616 3 
788 3340 2616 3 
789 3340 3339 1 
790 2856 1858 3 
791 2856 2855 1 
792 2856 3340 3 
793 2343 2369 2 
794 1590 2376 3 
795 1590 1589 1 
796 1862 1590 3 
797 1862 1861 1 
798 3104 2634 3 
799 3104 3103 1 
800 2604 2384 3 
801 2604 2603 1 
802 2604 3104 3 
803 2384 2634 3 
804 2384 2383 1 
805 2384 3104 3 
806 2634 2604 3 
807 2634 2633 1 
808 2619 2853 2 
809 2873 3643 2 
810 1847 2615 2 
811 2829 3103 2 
812 2904 2390 3 
813 1848 1847 1 
814 2596 1848 3 
815 2358 2870 3 
816 2870 2869 1 
817 3380 3644 3 
818 3380 3379 1 
819 3844 3380 3 
820 3844 3843 1 
821 3644 3844 3 
822 3644 3643 1 
823 3379 3895 2 
824 3397 3843 2 
825 3143 3641 2 
826 2877 3897 2 
827 3869 4385 2 
828 3626 4370 3 
829 3626 4870 3 
830 3626 4104 3 
831 3642 3902 3 
832 3642 3641 1 
833 3618 3642 3 
834 3618 3617 1 
835 3618 3924 3 
836 3902 3618 3 
837 3902 3901 1 
838 3902 3924 3 
839 4104 4870 3 
840 4104 4103 1 
841 2865 3901 2 
842 4370 4104 3 
843 4370 4369 1 
844 4870 4370 3 
845 4870 4869 1 
846 5356 5122 3 
847 5356 5355 1 
848 4120 5356 3 
849 4120 4119 1 
850 5122 4120 3 
851 5122 5121 1 
852 4621 4627 2 
853 5362 5878 3 
854 5362 5361 1 
855 5878 4156 3 
856 5878 5877 1 
857 4156 5362 3 
858 4156 4155 1 
859 389 899 2 
860 877 5875 2 
861 414 1376 3 
862 1376 1375 1 
863 1874 1900 3 
864 1874 1873 1 
865 1900 1918 3 
866 1900 1899 1 
867 1358 1874 3 
868 1358 1357 1 
869 1358 1918 3 
870 1358 1900 3 
871 1918 1874 3 
872 1918 1917 1 
873 1614 1613 1 
874 634 1614 3 
875 1394 1870 3 
876 1394 1393 1 
877 1870 1852 3 
878 1870 1869 1 
879 2614 2132 3 
880 2886 2885 1 
881 2868 2886 3 
882 3868 3140 3 
883 3868 3867 1 
884 3868 3896 3 
885 2878 2877 1 
886 3130 3636 3 
887 3130 3129 1 
888 3136 2878 3 
889 2867 3635 2 
890 2867 2868 1 
891 3371 3372 1 
892 2885 3139 2 
893 3924 3642 3 
894 3924 3923 1 
895 4127 4129 2 
896 3923 4923 2 
897 4397 5355 2 
898 4882 5114 3 
899 4882 4881 1 
900 4638 4882 3 
901 4638 4637 1 
902 4638 4864 3 
903 5410 4406 3 
904 5410 5409 1 
905 4932 5410 3 
906 4932 4931 1 
907 5127 5361 2 
908 929 5877 2 
909 6154 6124 3 
910 6154 6153 1 
911 181 401 2 
912 401 402 1 
913 642 144 3 
914 642 641 1 
915 642 6148 3 
916 6148 416 3 
917 6148 6147 1 
918 144 6148 3 
919 144 143 1 
920 416 144 3 
921 416 415 1 
922 416 642 3 
923 1898 1624 3 
924 1898 1897 1 
925 1682 1162 3 
926 1682 1681 1 
927 1682 1898 3 
928 1162 1898 3 
929 1162 1161 1 
930 2125 2126 1 
931 2125 2151 2 
932 1624 1162 3 
933 1624 1623 1 
934 1624 1682 3 
935 2152 2374 3 
936 2152 2151 1 
937 2374 2174 3 
938 2374 2373 1 
939 633 634 1 
940 2174 2152 3 
941 2174 2173 1 
942 1882 2174 3 
943 1882 1881 1 
944 1882 2374 3 
945 1882 2152 3 
946 1908 1907 1 
947 1385 1881 2 
948 1907 2373 2 
949 2148 1908 3 
950 2651 2675 2 
951 2658 3418 3 
952 2658 2657 1 
953 2658 3668 3 
954 3668 2676 3 
955 3668 3667 1 
956 2676 2658 3 
957 2676 2675 1 
958 3418 2676 3 
959 3418 3417 1 
960 3418 3668 3 
961 2158 3400 3 
962 2158 2157 1 
963 2158 3408 3 
964 3372 3910 3 
965 3910 3909 1 
966 3115 3129 2 
967 3135 3909 2 
968 3135 3136 1 
969 4919 5423 2 
970 5409 5427 2 
971 403 5389 2 
972 5916 5624 3 
973 5916 5915 1 
974 5128 5916 3 
975 5128 5127 1 
976 5128 5910 3 
977 121 123 2 
978 668 182 3 
979 668 667 1 
980 914 674 3 
981 914 913 1 
982 172 914 3 
983 172 171 1 
984 172 430 3 
985 172 674 3 
986 182 136 3 
987 182 181 1 
988 182 386 3 
989 136 668 3 
990 136 135 1 
991 136 386 3 
992 430 914 3 
993 430 429 1 
994 386 668 3 
995 386 385 1 
996 151 641 2 
997 409 6187 2 
998 152 151 1 
999 1142 152 3 
1000 1151 6159 2 
1001 1141 1439 2 
1002 1141 1142 1 
1003 2129 2175 2 
1004 2872 2402 3 
1005 2872 2871 1 
1006 2888 2872 3 
1007 2888 2887 1 
1008 2186 2185 1 
1009 2402 2888 3 
1010 2402 2401 1 
1011 2928 2186 3 
1012 3399 3667 2 
1013 3680 2934 3 
1014 3680 3679 1 
1015 2934 3174 3 
1016 2934 2933 1 
1017 3163 3173 2 
1018 4395 4396 1 
1019 4387 4388 1 
1020 4387 4395 2 
1021 4675 4887 2 
1022 5434 5194 3 
1023 5194 5193 1 
1024 4888 4878 3 
1025 4888 4887 1 
1026 4878 4400 3 
1027 4878 4877 1 
1028 4400 4888 3 
1029 4400 4399 1 
1030 4399 5617 2 
1031 5390 5654 3 
1032 5390 5389 1 
1033 5692 5390 3 
1034 5692 5691 1 
1035 6168 122 3 
1036 6168 6167 1 
1037 5392 6168 3 
1038 5392 5391 1 
1039 122 5392 3 
1040 122 121 1 
1041 171 5649 2 
1042 674 430 3 
1043 674 673 1 
1044 673 951 2 
1045 405 913 2 
1046 205 429 2 
1047 425 447 2 
1048 952 460 3 
1049 952 951 1 
1050 692 702 3 
1051 692 691 1 
1052 692 952 3 
1053 702 952 3 
1054 702 701 1 
1055 460 702 3 
1056 460 459 1 
1057 460 692 3 
1058 701 1173 2 
1059 1152 656 3 
1060 1152 1151 1 
1061 934 422 3 
1062 934 933 1 
1063 934 1152 3 
1064 656 422 3 
1065 656 655 1 
1066 656 934 3 
1067 422 1152 3 
1068 422 421 1 
1069 1208 1182 3 
1070 1208 1207 1 
1071 1174 1208 3 
1072 1174 1173 1 
1073 1174 1182 3 
1074 1182 954 3 
1075 1182 1181 1 
1076 1157 1158 1 
1077 1644 940 3 
1078 1644 1643 1 
1079 1176 2130 3 
1080 1176 1175 1 
1081 1176 1644 3 
1082 940 2130 3 
1083 940 939 1 
1084 940 1176 3 
1085 2130 1644 3 
1086 2130 2129 1 
1087 2185 2193 2 
1088 2673 3165 2 
1089 3164 3666 3 
1090 3164 3163 1 
1091 3164 3388 3 
1092 3906 3164 3 
1093 3906 3905 1 
1094 3388 3906 3 
1095 3388 3387 1 
1096 3388 3666 3 
1097 3666 3906 3 
1098 3666 3665 1 
1099 3193 4171 2 
1100 3665 4147 2 
1101 4428 4674 3 
1102 4428 4427 1 
1103 4428 4430 3 
1104 4168 4428 3 
1105 4168 4167 1 
1106 4430 4168 3 
1107 4430 4429 1 
1108 4430 4674 3 
1109 4674 4168 3 
1110 4674 4673 1 
1111 4138 4137 1 
1112 5664 4138 3 
1113 5433 5434 1 
1114 5369 5433 2 
1115 690 5922 3 
1116 690 689 1 
1117 690 892 3 
1118 164 5922 3 
1119 164 163 1 
1120 164 690 3 
1121 5660 5956 3 
1122 5660 5659 1 
1123 5922 892 3 
1124 5922 5921 1 
1125 6167 6189 2 
1126 406 405 1 
1127 6196 406 3 
1128 6195 6196 1 
1129 183 691 2 
1130 6214 440 3 
1131 459 935 2 
1132 440 439 1 
1133 1436 2448 3 
1134 2431 2437 2 
1135 2674 3186 3 
1136 2674 2673 1 
1137 2192 3186 3 
1138 2192 2191 1 
1139 2192 2674 3 
1140 2670 2192 3 
1141 2670 2669 1 
1142 2670 2674 3 
1143 3186 2670 3 
1144 3186 3185 1 
1145 3166 2444 3 
1146 3166 3165 1 
1147 2194 2444 3 
1148 2194 2193 1 
1149 2194 3166 3 
1150 2950 2194 3 
1151 2950 2949 1 
1152 2950 3166 3 
1153 3675 3687 2 
1154 4167 4457 2 
1155 4429 4695 2 
1156 4165 4673 2 
1157 4655 4917 2 
1158 4913 5165 2 
1159 5370 5166 3 
1160 5370 5369 1 
1161 5370 5416 3 
1162 5166 4390 3 
1163 5166 5165 1 
1164 5416 5166 3 
1165 5416 5415 1 
1166 5429 5669 2 
1167 4390 5370 3 
1168 4390 4389 1 
1169 4390 5416 3 
1170 5218 5220 3 
1171 5218 5217 1 
1172 4186 5218 3 
1173 4186 4185 1 
1174 4186 4460 3 
1175 4186 5220 3 
1176 5220 4460 3 
1177 5220 5219 1 
1178 5918 5917 1 
1179 6184 5918 3 
1180 689 893 2 
1181 693 1177 2 
1182 428 694 3 
1183 694 693 1 
1184 222 178 3 
1185 439 665 2 
1186 5944 5943 1 
1187 710 936 3 
1188 710 709 1 
1189 1190 5944 3 
1190 936 682 3 
1191 936 935 1 
1192 682 672 3 
1193 682 681 1 
1194 682 710 3 
1195 703 1193 2 
1196 672 936 3 
1197 672 671 1 
1198 672 710 3 
1199 671 921 2 
1200 2426 1940 3 
1201 1940 1939 1 
1202 1689 1959 2 
1203 1435 1436 1 
1204 1435 2447 2 
1205 2432 1706 3 
1206 2432 2431 1 
1207 1688 2432 3 
1208 1688 1687 1 
1209 1706 1688 3 
1210 1706 1705 1 
1211 3402 2900 3 
1212 2900 2899 1 
1213 2899 3673 2 
1214 2435 2669 2 
1215 1663 2721 2 
1216 4219 4693 2 
1217 4219 4220 1 
1218 4220 4672 3 
1219 4458 4457 1 
1220 3430 3930 3 
1221 3430 3429 1 
1222 3930 4166 3 
1223 3930 3929 1 
1224 4166 3430 3 
1225 4166 4165 1 
1226 5196 5462 3 
1227 4447 5217 2 
1228 4448 4210 3 
1229 4448 4447 1 
1230 4448 5442 3 
1231 4698 4448 3 
1232 4698 4697 1 
1233 4698 5442 3 
1234 4210 4698 3 
1235 4210 4209 1 
1236 5462 5461 1 
1237 4697 5457 2 
1238 5442 4210 3 
1239 5442 5441 1 
1240 5195 5196 1 
1241 5195 5219 2 
1242 4460 5218 3 
1243 4460 4459 1 
1244 6217 6218 1 
1245 5210 5454 3 
1246 5210 5209 1 
1247 462 198 3 
1248 730 729 1 
1249 5994 730 3 
1250 432 454 3 
1251 432 431 1 
1252 221 222 1 
1253 221 431 2 
1254 178 177 1 
1255 436 1180 3 
1256 436 435 1 
1257 1180 458 3 
1258 1180 1179 1 
1259 458 436 3 
1260 458 457 1 
1261 1189 1190 1 
1262 709 1461 2 
1263 1462 1496 3 
1264 1462 1461 1 
1265 1422 1496 3 
1266 1422 1421 1 
1267 1422 1480 3 
1268 1422 1462 3 
1269 1496 1480 3 
1270 1496 1495 1 
1271 1954 1702 3 
1272 1954 1953 1 
1273 1954 1960 3 
1274 1960 1702 3 
1275 1960 1959 1 
1276 1225 1421 2 
1277 1217 1941 2 
1278 1702 1200 3 
1279 1702 1701 1 
1280 1200 1960 3 
1281 1200 1199 1 
1282 1200 1954 3 
1283 1226 1214 3 
1284 1226 1225 1 
1285 1226 2204 3 
1286 726 1214 3 
1287 726 725 1 
1288 726 1226 3 
1289 1214 2204 3 
1290 1214 1213 1 
1291 2204 726 3 
1292 2204 2203 1 
1293 1687 1949 2 
1294 3674 3673 1 
1295 3172 3674 3 
1296 3171 3172 1 
1297 3171 3189 2 
1298 2948 3958 3 
1299 2948 2947 1 
1300 2948 3450 3 
1301 2948 3946 3 
1302 3958 3946 3 
1303 3958 3957 1 
1304 3450 3958 3 
1305 3450 3449 1 
1306 3449 3941 2 
1307 3946 3450 3 
1308 3946 3945 1 
1309 4672 4671 1 
1310 3926 3968 3 
1311 4668 4426 3 
1312 4668 4667 1 
1313 3662 4668 3 
1314 3662 3661 1 
1315 3968 3967 1 
1316 3962 3662 3 
1317 3962 3961 1 
1318 3962 4668 3 
1319 3962 4426 3 
1320 3929 4667 2 
1321 3429 3693 2 
1322 4209 5451 2 
1323 5696 5230 3 
1324 5696 5695 1 
1325 5696 6240 3 
1326 6240 5470 3 
1327 6240 6239 1 
1328 5470 5696 3 
1329 5470 5469 1 
1330 5230 5470 3 
1331 5230 5229 1 
1332 5230 6240 3 
1333 6218 424 3 
1334 424 423 1 
1335 5206 5964 3 
1336 5206 5205 1 
1337 5206 5938 3 
1338 5938 5964 3 
1339 5938 5937 1 
1340 5938 6174 3 
1341 5964 6174 3 
1342 5964 5963 1 
1343 6174 5206 3 
1344 6174 6173 1 
1345 5972 5484 3 
1346 5484 5483 1 
1347 179 461 2 
1348 461 462 1 
1349 209 729 2 
1350 454 6192 3 
1351 454 453 1 
1352 6192 432 3 
1353 6192 6191 1 
1354 5993 5994 1 
1355 451 452 1 
1356 451 5993 2 
1357 1457 1479 2 
1358 6200 472 3 
1359 6200 6199 1 
1360 472 216 3 
1361 472 471 1 
1362 472 1714 3 
1363 1714 6200 3 
1364 1714 1713 1 
1365 216 6200 3 
1366 216 215 1 
1367 216 1714 3 
1368 1942 1964 3 
1369 1942 1941 1 
1370 1942 2206 3 
1371 1720 1719 1 
1372 1720 2206 3 
1373 1964 1720 3 
1374 1964 1963 1 
1375 1964 2206 3 
1376 2445 2446 1 
1377 2445 3207 2 
1378 3719 3931 2 
1379 3932 3934 3 
1380 3932 3931 1 
1381 3934 4956 3 
1382 3934 3933 1 
1383 3694 4956 3 
1384 3694 3693 1 
1385 3694 3934 3 
1386 3694 3932 3 
1387 4956 3932 3 
1388 4956 4955 1 
1389 3761 5441 2 
1390 3762 4464 3 
1391 3762 3761 1 
1392 4438 4206 3 
1393 4438 4437 1 
1394 4438 4474 3 
1395 4474 4206 3 
1396 4474 4473 1 
1397 4474 4988 3 
1398 4206 4988 3 
1399 4206 4205 1 
1400 4988 4438 3 
1401 4988 4987 1 
1402 3466 3762 3 
1403 3466 3465 1 
1404 4464 3466 3 
1405 4464 4463 1 
1406 4738 3998 3 
1407 4738 4737 1 
1408 5693 5695 2 
1409 5963 5979 2 
1410 465 6239 2 
1411 5464 232 3 
1412 5464 5463 1 
1413 466 5464 3 
1414 466 465 1 
1415 6164 5486 3 
1416 6164 6163 1 
1417 706 180 3 
1418 706 705 1 
1419 706 5478 3 
1420 5478 5968 3 
1421 5478 5477 1 
1422 180 5968 3 
1423 180 179 1 
1424 180 5478 3 
1425 5968 706 3 
1426 5968 5967 1 
1427 5676 6164 3 
1428 5676 5675 1 
1429 705 6191 2 
1430 5486 5676 3 
1431 5486 5485 1 
1432 453 923 2 
1433 468 6236 3 
1434 468 467 1 
1435 480 464 3 
1436 479 480 1 
1437 463 971 2 
1438 731 749 2 
1439 1216 1458 3 
1440 1216 1215 1 
1441 1470 1216 3 
1442 1470 1469 1 
1443 1458 1470 3 
1444 1458 1457 1 
1445 464 463 1 
1446 2236 1736 3 
1447 2236 2235 1 
1448 1736 2730 3 
1449 1736 1735 1 
1450 1253 1981 2 
1451 1486 2236 3 
1452 1486 1485 1 
1453 1486 2730 3 
1454 1486 1736 3 
1455 2730 2236 3 
1456 2730 2729 1 
1457 2190 3984 3 
1458 2190 2450 3 
1459 2190 2189 1 
1460 2450 3208 3 
1461 2450 2449 1 
1462 3208 2190 3 
1463 3208 3984 3 
1464 3208 3207 1 
1465 3984 2450 3 
1466 3984 3983 1 
1467 3933 3959 2 
1468 4507 4737 2 
1469 4252 4508 3 
1470 4508 4507 1 
1471 4982 4992 3 
1472 4982 4981 1 
1473 4714 4982 3 
1474 4714 4713 1 
1475 4992 4714 3 
1476 4992 4991 1 
1477 4981 5203 2 
1478 4733 4734 1 
1479 4733 5025 2 
1480 5992 5468 3 
1481 5992 5991 1 
1482 6215 6216 1 
1483 5467 6215 2 
1484 232 466 3 
1485 232 231 1 
1486 231 5973 2 
1487 971 972 1 
1488 476 972 3 
1489 476 750 3 
1490 1474 1478 3 
1491 1478 1477 1 
1492 2461 2462 1 
1493 2232 2460 3 
1494 2232 2231 1 
1495 2232 2700 3 
1496 2232 3472 3 
1497 2700 3472 3 
1498 2700 2699 1 
1499 2460 2700 3 
1500 2460 2459 1 
1501 3979 3983 2 
1502 3473 3474 1 
1503 3473 4193 2 
1504 4486 3478 3 
1505 4486 4485 1 
1506 3722 3478 3 
1507 3722 3721 1 
1508 3722 4486 3 
1509 3478 3508 3 
1510 3478 3477 1 
1511 4479 4713 2 
1512 4259 4721 2 
1513 5252 5251 1 
1514 5028 4232 3 
1515 5028 5027 1 
1516 4016 5028 3 
1517 4016 4015 1 
1518 4016 5012 3 
1519 5012 4232 3 
1520 5012 5011 1 
1521 5012 5028 3 
1522 4232 4016 3 
1523 4232 4231 1 
1524 4734 5252 3 
1525 4251 4711 2 
1526 4251 4252 1 
1527 4501 4991 2 
1528 3751 4015 2 
1529 4223 4224 1 
1530 4223 4757 2 
1531 4757 4758 1 
1532 5246 5248 3 
1533 5267 5745 2 
1534 5248 5247 1 
1535 236 242 3 
1536 236 5974 3 
1537 236 235 1 
1538 5974 226 3 
1539 5974 5973 1 
1540 226 236 3 
1541 226 225 1 
1542 242 5974 3 
1543 242 226 3 
1544 242 241 1 
1545 5247 5497 2 
1546 5487 5991 2 
1547 5497 5498 1 
1548 225 6025 2 
1549 5998 5997 1 
1550 5998 6216 3 
1551 5498 5726 3 
1552 5498 5998 3 
1553 5726 6216 3 
1554 5730 5729 1 
1555 46 5730 3 
1556 260 259 1 
1557 260 476 3 
1558 972 1004 3 
1559 988 260 3 
1560 711 721 2 
1561 268 1024 3 
1562 11 6051 2 
1563 6051 6052 1 
1564 243 475 2 
1565 1024 1023 1 
1566 475 476 1 
1567 1490 740 3 
1568 1490 1489 1 
1569 740 1202 3 
1570 740 739 1 
1571 740 958 3 
1572 1202 1490 3 
1573 1202 1201 1 
1574 958 1490 3 
1575 958 957 1 
1576 958 1202 3 
1577 1945 2227 2 
1578 1538 2506 3 
1579 1503 2761 2 
1580 2791 3267 2 
1581 3980 3979 1 
1582 3474 3980 3 
1583 3491 3492 1 
1584 3491 4485 2 
1585 3812 3016 3 
1586 3812 3811 1 
1587 3016 3798 3 
1588 3016 3015 1 
1589 3798 3812 3 
1590 3798 3797 1 
1591 4284 5222 3 
1592 4284 4283 1 
1593 4284 4722 3 
1594 4284 4990 3 
1595 4722 4990 3 
1596 4722 4721 1 
1597 5222 4722 3 
1598 5222 5221 1 
1599 4990 5222 3 
1600 4990 4989 1 
1601 4758 4724 3 
1602 3752 4978 3 
1603 3752 3751 1 
1604 3752 4712 3 
1605 4724 4723 1 
1606 4224 5250 3 
1607 4224 4502 3 
1608 4224 5494 3 
1609 4712 5510 3 
1610 4712 4711 1 
1611 4712 4978 3 
1612 5510 3752 3 
1613 5510 5509 1 
1614 4978 5510 3 
1615 4978 4977 1 
1616 241 5709 2 
1617 5709 5710 1 
1618 6026 5982 3 
1619 6026 6025 1 
1620 508 254 3 
1621 508 507 1 
1622 508 6026 3 
1623 254 5982 3 
1624 254 253 1 
1625 254 6026 3 
1626 247 5753 2 
1627 5255 5747 2 
1628 490 5754 3 
1629 490 489 1 
1630 24 474 3 
1631 24 23 1 
1632 24 6018 3 
1633 24 6014 3 
1634 6018 474 3 
1635 6018 6017 1 
1636 474 6014 3 
1637 474 473 1 
1638 17 18 1 
1639 5518 490 3 
1640 5518 5517 1 
1641 5784 6038 3 
1642 5754 5518 3 
1643 5754 5753 1 
1644 6038 6037 1 
1645 489 519 2 
1646 6014 6018 3 
1647 6014 6013 1 
1648 34 248 3 
1649 34 33 1 
1650 34 6022 3 
1651 12 34 3 
1652 12 11 1 
1653 12 6022 3 
1654 6022 248 3 
1655 6022 6021 1 
1656 1011 1483 2 
1657 1012 782 3 
1658 1012 1011 1 
1659 1012 1030 3 
1660 1012 1276 3 
1661 782 1276 3 
1662 782 781 1 
1663 526 522 3 
1664 526 1022 3 
1665 1276 1030 3 
1666 1276 1275 1 
1667 1030 782 3 
1668 1030 1029 1 
1669 1510 1260 3 
1670 1510 1509 1 
1671 270 522 3 
1672 270 768 3 
1673 270 526 3 
1674 522 521 1 
1675 522 768 3 
1676 781 1523 2 
1677 1013 1241 2 
1678 515 516 1 
1679 515 1263 2 
1680 535 1021 2 
1681 1021 1022 1 
1682 1249 1489 2 
1683 3 747 2 
1684 1002 1020 3 
1685 1002 1001 1 
1686 1002 1758 3 
1687 1019 1779 2 
1688 536 1002 3 
1689 536 535 1 
1690 536 1758 3 
1691 1242 1738 3 
1692 1242 1241 1 
1693 486 1242 3 
1694 486 485 1 
1695 1758 1020 3 
1696 1758 1757 1 
1697 1738 486 3 
1698 1738 1737 1 
1699 1020 536 3 
1700 1020 1019 1 
1701 509 1243 2 
1702 1279 2019 2 
1703 2770 2294 3 
1704 2770 2769 1 
1705 2274 2266 3 
1706 2274 2273 1 
1707 2274 2294 3 
1708 2274 2770 3 
1709 2294 2266 3 
1710 2294 2293 1 
1711 2266 2770 3 
1712 2266 2265 1 
1713 736 1224 3 
1714 736 735 1 
1715 1747 1757 2 
1716 1224 1730 3 
1717 1224 1223 1 
1718 1730 736 3 
1719 1730 1729 1 
1720 1723 2253 2 
1721 1743 1744 1 
1722 2253 2254 1 
1723 1237 2471 2 
1724 1511 1512 1 
1725 1511 1743 2 
1726 2009 2505 2 
1727 2254 2280 3 
1728 2254 2786 3 
1729 2753 2773 2 
1730 2279 2509 2 
1731 1233 2971 2 
1732 2276 2018 3 
1733 2276 2275 1 
1734 2754 2276 3 
1735 2754 2753 1 
1736 2018 2508 3 
1737 2018 2017 1 
1738 2018 2754 3 
1739 2242 2224 3 
1740 2242 2241 1 
1741 2224 2972 3 
1742 2224 2223 1 
1743 2972 2242 3 
1744 2972 2971 1 
1745 2792 3268 3 
1746 2792 2791 1 
1747 2768 2792 3 
1748 2768 2767 1 
1749 2259 3011 2 
1750 2798 3546 3 
1751 2798 2797 1 
1752 3261 3545 2 