ITEM: TIMESTEP
62040
ITEM: NUMBER OF ENTRIES
7810
ITEM: BOX BOUNDS pp pp ff
0.0000000000000000e+00 7.2168784000000002e+01
0.0000000000000000e+00 7.2168784000000002e+01
0.0000000000000000e+00 1.2000000000000000e+01
ITEM: ENTRIES index c_1[1] c_1[2] c_1[3]
1 6008 6224 3 
2 6008 6007 1 
3 6224 250 3 
4 6224 6223 1 
5 244 243 1 
6 764 310 3 
7 310 309 1 
8 536 1002 3 
9 536 535 1 
10 536 1758 3 
11 1020 536 3 
12 1020 1019 1 
13 1002 1020 3 
14 1002 1001 1 
15 1002 1758 3 
16 1758 1020 3 
17 1758 1757 1 
18 1737 1738 1 
19 1747 1757 2 
20 1724 1748 3 
21 1724 1723 1 
22 1724 2012 3 
23 534 533 1 
24 1512 534 3 
25 2742 1752 3 
26 2279 2509 2 
27 1517 1518 1 
28 1752 1751 1 
29 2762 1504 3 
30 2762 2761 1 
31 2251 2489 2 
32 2252 2732 3 
33 2252 2251 1 
34 2252 2762 3 
35 3526 3525 1 
36 3512 3526 3 
37 3511 3512 1 
38 4245 4529 2 
39 4736 5244 3 
40 5244 5243 1 
41 4976 4975 1 
42 6002 244 3 
43 252 6012 3 
44 252 251 1 
45 252 5768 3 
46 5768 5772 3 
47 5768 5767 1 
48 5768 6012 3 
49 5783 5795 2 
50 5783 5784 1 
51 6012 5772 3 
52 6012 6011 1 
53 525 526 1 
54 473 525 2 
55 29 251 2 
56 309 513 2 
57 33 501 2 
58 501 502 1 
59 270 522 3 
60 270 768 3 
61 270 526 3 
62 502 1022 3 
63 502 516 3 
64 526 522 3 
65 526 1022 3 
66 768 1022 3 
67 522 521 1 
68 522 768 3 
69 748 747 1 
70 516 284 3 
71 6052 748 3 
72 284 283 1 
73 284 502 3 
74 1021 1022 1 
75 535 1021 2 
76 759 777 2 
77 1743 1744 1 
78 1511 1512 1 
79 1511 1743 2 
80 2002 2486 3 
81 2002 2774 3 
82 2961 2962 1 
83 1504 2252 3 
84 1504 1503 1 
85 2732 1504 3 
86 2732 2731 1 
87 2732 2762 3 
88 2962 3256 3 
89 2511 2512 1 
90 2511 2767 2 
91 2531 2731 2 
92 3262 3788 3 
93 3262 3261 1 
94 2518 3262 3 
95 2518 2517 1 
96 2518 3788 3 
97 2262 3262 3 
98 2262 2261 1 
99 2262 2518 3 
100 3788 2262 3 
101 3788 3787 1 
102 4024 4023 1 
103 3272 3034 3 
104 3272 3271 1 
105 3272 3538 3 
106 3034 3264 3 
107 3034 3033 1 
108 3270 4024 3 
109 3315 4035 2 
110 3770 3769 1 
111 4012 3770 3 
112 5259 5260 1 
113 5259 5737 2 
114 4048 4500 3 
115 4048 4047 1 
116 4488 5238 3 
117 4488 4487 1 
118 5796 5795 1 
119 240 5796 3 
120 5772 252 3 
121 5772 5771 1 
122 5788 5787 1 
123 18 5788 3 
124 545 553 2 
125 1067 1068 1 
126 47 48 1 
127 47 517 2 
128 521 1067 2 
129 289 1759 2 
130 2271 2763 2 
131 3256 3255 1 
132 2272 2271 1 
133 2546 2272 3 
134 2512 2530 3 
135 2512 2522 3 
136 2302 2512 3 
137 2772 2530 3 
138 2772 2771 1 
139 2530 2532 3 
140 2530 2529 1 
141 2261 2771 2 
142 3263 3535 2 
143 4036 4035 1 
144 4026 3746 3 
145 4026 4036 3 
146 3746 3745 1 
147 3746 4036 3 
148 4033 4045 2 
149 4809 4810 1 
150 4517 4809 2 
151 4525 4789 2 
152 4790 4789 1 
153 5039 5535 2 
154 17 18 1 
155 239 240 1 
156 239 5539 2 
157 5540 542 3 
158 5540 5539 1 
159 5540 5780 3 
160 542 6030 3 
161 542 541 1 
162 5780 542 3 
163 5780 5779 1 
164 5780 6030 3 
165 6030 5540 3 
166 6030 6029 1 
167 19 39 2 
168 19 20 1 
169 1267 1549 2 
170 1542 1792 3 
171 1542 1541 1 
172 1542 2308 3 
173 1792 2308 3 
174 1792 1791 1 
175 2290 794 3 
176 2290 2289 1 
177 290 2290 3 
178 290 289 1 
179 794 290 3 
180 794 793 1 
181 2574 1828 3 
182 2574 2573 1 
183 2328 2574 3 
184 2328 2327 1 
185 1322 2574 3 
186 1322 1321 1 
187 1322 2328 3 
188 1322 1828 3 
189 1828 2328 3 
190 1828 1827 1 
191 1571 1781 2 
192 2313 2775 2 
193 1782 1781 1 
194 1321 2545 2 
195 2545 2546 1 
196 3291 3299 2 
197 3292 3291 1 
198 3310 3292 3 
199 3031 3309 2 
200 3309 3310 1 
201 4025 4026 1 
202 4025 3745 2 
203 3804 4052 3 
204 4052 4051 1 
205 4052 3312 3 
206 4772 5024 3 
207 4772 4771 1 
208 5024 4518 3 
209 5024 5023 1 
210 4802 4554 3 
211 4316 4790 3 
212 4037 4038 1 
213 4554 4553 1 
214 4801 4802 1 
215 3807 3808 1 
216 4038 4306 3 
217 5566 5048 3 
218 5566 5565 1 
219 5048 5792 3 
220 5048 5047 1 
221 5033 5034 1 
222 59 6055 2 
223 5805 6043 2 
224 776 775 1 
225 20 1330 3 
226 2308 1290 3 
227 2308 2307 1 
228 1290 1792 3 
229 1290 1289 1 
230 1290 1542 3 
231 1333 2307 2 
232 1823 2289 2 
233 1302 1540 3 
234 1302 1301 1 
235 2054 2332 3 
236 2054 2053 1 
237 1334 2054 3 
238 1334 1333 1 
239 1824 1800 3 
240 1824 1823 1 
241 2332 1334 3 
242 2332 2331 1 
243 1800 2292 3 
244 1800 1799 1 
245 1800 2022 3 
246 1301 1569 2 
247 1540 1572 3 
248 1540 1539 1 
249 2022 1824 3 
250 2022 2021 1 
251 2022 2292 3 
252 3300 2822 3 
253 3300 3299 1 
254 2822 3280 3 
255 2822 2821 1 
256 3305 3581 2 
257 4567 5331 2 
258 4567 4568 1 
259 4767 4783 2 
260 4293 4557 2 
261 5318 5317 1 
262 5820 5552 3 
263 5820 5819 1 
264 5542 5820 3 
265 5542 5541 1 
266 5552 5542 3 
267 5552 5551 1 
268 5548 6064 3 
269 5548 5547 1 
270 5825 6063 2 
271 6055 6056 1 
272 329 330 1 
273 329 561 2 
274 354 5806 3 
275 354 353 1 
276 354 5826 3 
277 5826 6054 3 
278 5826 5825 1 
279 6054 354 3 
280 6054 6053 1 
281 5806 6054 3 
282 5806 5805 1 
283 5806 5826 3 
284 6069 6070 1 
285 5809 6069 2 
286 590 6094 3 
287 590 589 1 
288 330 6056 3 
289 330 6094 3 
290 328 330 3 
291 328 6056 3 
292 313 559 2 
293 70 798 3 
294 70 69 1 
295 70 72 3 
296 798 314 3 
297 798 797 1 
298 314 70 3 
299 314 313 1 
300 2292 1824 3 
301 2292 2291 1 
302 1063 1817 2 
303 2291 2353 2 
304 1826 2070 3 
305 2070 2069 1 
306 3073 2843 2 
307 2562 3086 3 
308 2562 2561 1 
309 2562 3074 3 
310 3086 2844 3 
311 3086 3085 1 
312 3074 3086 3 
313 3074 3073 1 
314 2593 3565 2 
315 2793 2811 2 
316 2821 3317 2 
317 2837 3059 2 
318 3322 3582 3 
319 3322 3321 1 
320 3582 4312 3 
321 3582 3581 1 
322 3062 3582 3 
323 3062 3061 1 
324 3062 4312 3 
325 3062 3322 3 
326 4312 3322 3 
327 4312 4311 1 
328 4815 4816 1 
329 4300 4058 3 
330 4300 4299 1 
331 3568 4058 3 
332 3568 3567 1 
333 3568 4300 3 
334 4058 4292 3 
335 4058 4057 1 
336 4292 3568 3 
337 4292 4291 1 
338 4292 4300 3 
339 4310 4309 1 
340 4816 4310 3 
341 4291 4587 2 
342 4309 4543 2 
343 3835 4057 2 
344 4768 4767 1 
345 4568 4768 3 
346 5544 5318 3 
347 5822 5838 3 
348 74 6084 3 
349 74 73 1 
350 5315 5316 1 
351 5838 5837 1 
352 6080 544 3 
353 6080 6079 1 
354 5564 6080 3 
355 5564 5563 1 
356 5794 5568 3 
357 5794 5793 1 
358 5794 5808 3 
359 5808 5568 3 
360 5808 5807 1 
361 5560 5808 3 
362 5560 5559 1 
363 5560 5794 3 
364 6049 6050 1 
365 5551 6049 2 
366 562 300 3 
367 562 561 1 
368 324 76 3 
369 324 323 1 
370 324 562 3 
371 76 562 3 
372 76 75 1 
373 300 76 3 
374 300 299 1 
375 300 324 3 
376 353 5541 2 
377 5559 6053 2 
378 6027 6028 1 
379 6027 6079 2 
380 6028 6076 3 
381 6028 6096 3 
382 6096 6076 3 
383 104 6096 3 
384 104 6028 3 
385 104 6082 3 
386 6076 6075 1 
387 6076 6082 3 
388 6095 6096 1 
389 72 314 3 
390 72 71 1 
391 72 798 3 
392 844 1560 3 
393 844 843 1 
394 1560 1078 3 
395 1560 1559 1 
396 1078 844 3 
397 1078 1077 1 
398 1069 1327 2 
399 1074 828 3 
400 1074 1073 1 
401 1832 1074 3 
402 1832 1831 1 
403 828 1832 3 
404 828 827 1 
405 2353 2354 1 
406 2823 2824 1 
407 1845 1846 1 
408 1825 1845 2 
409 1825 1826 1 
410 2338 2072 3 
411 2809 2810 1 
412 2072 2071 1 
413 2810 2036 3 
414 3056 2330 3 
415 3056 3055 1 
416 2594 3056 3 
417 2594 2593 1 
418 3554 2820 3 
419 3554 3553 1 
420 2820 2794 3 
421 2820 2819 1 
422 2794 3554 3 
423 2794 2793 1 
424 2036 2035 1 
425 2330 2594 3 
426 2330 2329 1 
427 3584 3583 1 
428 3596 3584 3 
429 3847 3829 2 
430 3830 3324 3 
431 3830 3829 1 
432 3061 4311 2 
433 4853 4854 1 
434 5316 6088 3 
435 91 5327 2 
436 6088 6087 1 
437 544 5564 3 
438 544 543 1 
439 5807 5839 2 
440 90 116 3 
441 116 115 1 
442 1328 1090 3 
443 1328 1327 1 
444 1090 1086 3 
445 1090 1089 1 
446 1086 1328 3 
447 1086 1085 1 
448 1091 1103 2 
449 1367 1368 1 
450 1077 1367 2 
451 1810 2090 3 
452 1810 1809 1 
453 818 1098 3 
454 818 817 1 
455 2120 818 3 
456 2120 2119 1 
457 1098 2120 3 
458 1098 1097 1 
459 2090 2074 3 
460 2090 2089 1 
461 2074 1810 3 
462 2074 2073 1 
463 1812 1810 3 
464 1812 1811 1 
465 1812 2074 3 
466 1812 2090 3 
467 2064 2368 3 
468 2064 2120 3 
469 2367 2368 1 
470 2359 2367 2 
471 3037 3095 2 
472 2815 2816 1 
473 2045 2046 1 
474 2045 3043 2 
475 1846 2580 3 
476 2580 2579 1 
477 3044 2828 3 
478 3044 3043 1 
479 2329 3057 2 
480 3604 3044 3 
481 3604 3603 1 
482 3850 3822 3 
483 3850 3849 1 
484 3850 4610 3 
485 4610 4572 3 
486 4610 4609 1 
487 4572 3850 3 
488 4572 4571 1 
489 3822 4572 3 
490 3822 3821 1 
491 3822 4610 3 
492 3833 4571 2 
493 3833 3834 1 
494 4604 4603 1 
495 5346 4604 3 
496 5345 5346 1 
497 4339 4340 1 
498 5051 5573 2 
499 336 822 3 
500 336 335 1 
501 5638 586 3 
502 5638 5637 1 
503 586 832 3 
504 586 585 1 
505 832 5638 3 
506 832 831 1 
507 906 6144 3 
508 906 905 1 
509 5616 906 3 
510 5616 5615 1 
511 6144 5616 3 
512 6144 6143 1 
513 316 336 3 
514 316 315 1 
515 822 316 3 
516 822 821 1 
517 115 857 2 
518 81 82 1 
519 81 563 2 
520 82 564 3 
521 82 840 3 
522 564 563 1 
523 564 840 3 
524 840 839 1 
525 1586 1585 1 
526 1574 1586 3 
527 1574 1860 3 
528 848 1368 3 
529 848 1586 3 
530 1336 1860 3 
531 1336 1596 3 
532 1336 1342 3 
533 1342 1596 3 
534 1342 1860 3 
535 1108 862 3 
536 1108 1107 1 
537 1368 1596 3 
538 2063 2064 1 
539 1335 1336 1 
540 1335 1809 2 
541 1600 1599 1 
542 1600 2064 3 
543 1600 2368 3 
544 2320 1600 3 
545 2320 2368 3 
546 2081 2089 2 
547 1097 2565 2 
548 1565 1566 1 
549 1565 2119 2 
550 2816 2082 3 
551 2082 2081 1 
552 2862 3084 3 
553 2862 2861 1 
554 3084 2826 3 
555 3084 3083 1 
556 2826 2862 3 
557 2826 2825 1 
558 2109 2607 2 
559 2845 2863 2 
560 2845 2846 1 
561 2095 2096 1 
562 2095 2591 2 
563 3606 3864 3 
564 3606 3605 1 
565 3092 3606 3 
566 3092 3091 1 
567 3864 3092 3 
568 3864 3863 1 
569 4337 4338 1 
570 4337 4841 2 
571 4570 4842 3 
572 4570 4569 1 
573 4570 4590 3 
574 4570 4608 3 
575 3837 3838 1 
576 4105 4609 2 
577 4569 4575 2 
578 4117 4118 1 
579 4117 4341 2 
580 4113 4855 2 
581 5801 5802 1 
582 5801 6103 2 
583 5348 5102 3 
584 5348 5347 1 
585 5348 5574 3 
586 5094 5348 3 
587 5094 5093 1 
588 5102 5094 3 
589 5102 5101 1 
590 5102 5574 3 
591 5574 5094 3 
592 5574 5573 1 
593 5607 6107 2 
594 1148 1147 1 
595 1080 852 3 
596 852 851 1 
597 5858 5857 1 
598 5598 5858 3 
599 874 873 1 
600 6126 334 3 
601 1594 1568 3 
602 1601 1602 1 
603 1851 1852 1 
604 1869 1870 1 
605 1568 1567 1 
606 1849 1850 1 
607 1589 1849 2 
608 2092 2128 3 
609 2092 2091 1 
610 1617 2855 2 
611 2825 3339 2 
612 2096 2366 3 
613 2366 2365 1 
614 3100 2854 3 
615 3365 4365 2 
616 3593 3863 2 
617 4608 4590 3 
618 4608 4607 1 
619 4842 4608 3 
620 4842 4841 1 
621 3884 3124 3 
622 3884 3883 1 
623 3874 3884 3 
624 3874 3873 1 
625 3124 2336 3 
626 3124 3123 1 
627 3124 3874 3 
628 2336 3884 3 
629 2336 2335 1 
630 2336 3874 3 
631 4590 4842 3 
632 4590 4589 1 
633 2841 3333 2 
634 2842 4350 3 
635 2842 2841 1 
636 4856 4332 3 
637 4856 4855 1 
638 4593 4594 1 
639 4593 5115 2 
640 4861 4879 2 
641 4622 4621 1 
642 4622 4844 3 
643 4594 4622 3 
644 4595 5093 2 
645 4362 4384 3 
646 5615 5855 2 
647 627 628 1 
648 878 6086 3 
649 878 877 1 
650 6125 6126 1 
651 334 333 1 
652 1862 1590 3 
653 1862 1861 1 
654 2376 1862 3 
655 2376 2375 1 
656 1590 2376 3 
657 1590 1589 1 
658 2903 3133 2 
659 2903 2904 1 
660 3134 2372 3 
661 3134 3133 1 
662 3340 2616 3 
663 3340 3339 1 
664 1858 1857 1 
665 1858 3340 3 
666 1858 2616 3 
667 2856 1858 3 
668 2856 2855 1 
669 2856 3340 3 
670 2616 2856 3 
671 2616 2615 1 
672 2854 2853 1 
673 3861 3862 1 
674 3910 3909 1 
675 3371 3372 1 
676 3626 4370 3 
677 3626 4870 3 
678 3626 4104 3 
679 4104 4870 3 
680 4104 4103 1 
681 4870 4370 3 
682 4870 4869 1 
683 4370 4104 3 
684 4370 4369 1 
685 5349 5350 1 
686 4384 4383 1 
687 113 341 2 
688 102 6086 3 
689 102 101 1 
690 102 878 3 
691 342 102 3 
692 342 341 1 
693 342 878 3 
694 6086 342 3 
695 6086 6085 1 
696 6142 1372 3 
697 1372 1371 1 
698 1105 1135 2 
699 1134 1136 3 
700 1136 1135 1 
701 133 134 1 
702 622 1144 3 
703 1137 1138 1 
704 1137 1375 2 
705 2121 2375 2 
706 2390 2389 1 
707 2904 2390 3 
708 1642 1641 1 
709 2408 2406 3 
710 2408 2407 1 
711 2362 1642 3 
712 3862 3624 3 
713 3624 3623 1 
714 3136 2878 3 
715 2878 2877 1 
716 3642 3902 3 
717 3642 3641 1 
718 3622 3621 1 
719 3902 3618 3 
720 3902 3901 1 
721 3902 3924 3 
722 3618 3642 3 
723 3618 3617 1 
724 3618 3924 3 
725 3621 4421 2 
726 5122 4120 3 
727 5122 5121 1 
728 4120 5356 3 
729 4120 4119 1 
730 5356 5122 3 
731 5356 5355 1 
732 5137 5379 2 
733 5137 5138 1 
734 5916 5624 3 
735 5916 5915 1 
736 5624 5128 3 
737 5624 5623 1 
738 390 124 3 
739 390 389 1 
740 6120 5842 3 
741 5842 5841 1 
742 5343 6085 2 
743 6114 390 3 
744 6114 6113 1 
745 6148 416 3 
746 6148 6147 1 
747 642 144 3 
748 642 641 1 
749 642 6148 3 
750 144 6148 3 
751 144 143 1 
752 416 144 3 
753 416 415 1 
754 416 642 3 
755 601 1661 2 
756 1662 1650 3 
757 1162 1898 3 
758 1162 1161 1 
759 1376 1375 1 
760 1144 1143 1 
761 414 1376 3 
762 1661 1662 1 
763 1682 1162 3 
764 1682 1681 1 
765 1682 1898 3 
766 1650 1649 1 
767 2406 2640 3 
768 2406 2405 1 
769 1937 1938 1 
770 2622 1364 3 
771 2622 2621 1 
772 1670 1364 3 
773 1670 1669 1 
774 1670 2622 3 
775 1896 1670 3 
776 1896 1895 1 
777 1896 2622 3 
778 1364 1896 3 
779 1364 1363 1 
780 1363 3373 2 
781 2640 2408 3 
782 2640 2639 1 
783 1895 2401 2 
784 1889 2389 2 
785 2402 2888 3 
786 2402 2401 1 
787 2872 2402 3 
788 2872 2871 1 
789 2888 2872 3 
790 2888 2887 1 
791 2655 3151 2 
792 3161 4141 2 
793 3161 3162 1 
794 4924 3622 3 
795 3389 4659 2 
796 4923 4924 1 
797 3923 4923 2 
798 2911 4131 2 
799 4111 4112 1 
800 3617 4111 2 
801 3886 2912 3 
802 3889 3915 2 
803 4116 4422 3 
804 4116 4115 1 
805 4422 3614 3 
806 4422 4421 1 
807 3614 4116 3 
808 3614 3613 1 
809 4891 4892 1 
810 5121 5143 2 
811 5396 5148 3 
812 5396 5395 1 
813 4675 4887 2 
814 5393 5394 1 
815 5910 5624 3 
816 5910 5909 1 
817 5910 5916 3 
818 5128 5916 3 
819 5128 5127 1 
820 5128 5910 3 
821 407 408 1 
822 407 5907 2 
823 5625 5626 1 
824 121 123 2 
825 623 6147 2 
826 1152 656 3 
827 1152 1151 1 
828 1643 1673 2 
829 2130 1644 3 
830 2130 2129 1 
831 1644 940 3 
832 1644 1643 1 
833 1176 2130 3 
834 1176 1175 1 
835 1176 1644 3 
836 940 2130 3 
837 940 939 1 
838 940 1176 3 
839 2129 2175 2 
840 1423 1424 1 
841 1423 2161 2 
842 2148 1908 3 
843 1908 1907 1 
844 2661 2667 2 
845 1936 2200 3 
846 1936 1935 1 
847 1936 2404 3 
848 1902 1936 3 
849 1902 1901 1 
850 2392 2418 3 
851 2392 2391 1 
852 2391 2631 2 
853 2404 1902 3 
854 2404 2403 1 
855 2403 2411 2 
856 2871 2907 2 
857 2656 2934 3 
858 2656 2655 1 
859 3174 2656 3 
860 3174 3173 1 
861 2934 3174 3 
862 2934 2933 1 
863 3163 3173 2 
864 2914 4142 3 
865 2914 2913 1 
866 4142 3900 3 
867 4142 4141 1 
868 3900 2914 3 
869 3900 3899 1 
870 3164 3666 3 
871 3164 3163 1 
872 3164 3388 3 
873 3666 3906 3 
874 3666 3665 1 
875 3906 3164 3 
876 3906 3905 1 
877 3388 3906 3 
878 3388 3387 1 
879 3388 3666 3 
880 3390 4412 3 
881 3390 3389 1 
882 4154 3390 3 
883 4154 4153 1 
884 2912 2911 1 
885 4412 4154 3 
886 4412 4411 1 
887 4136 3916 3 
888 4136 4135 1 
889 4136 5132 3 
890 3678 4136 3 
891 3678 3677 1 
892 3678 5132 3 
893 3916 3678 3 
894 3916 3915 1 
895 5132 3916 3 
896 5132 5131 1 
897 3377 3378 1 
898 4932 4931 1 
899 5144 5143 1 
900 4406 4932 3 
901 4678 4677 1 
902 5154 5144 3 
903 5153 5154 1 
904 5394 4678 3 
905 5926 5642 3 
906 5926 5925 1 
907 404 5926 3 
908 404 403 1 
909 5642 404 3 
910 5642 5641 1 
911 6168 122 3 
912 6168 6167 1 
913 690 5922 3 
914 690 689 1 
915 690 892 3 
916 689 893 2 
917 934 422 3 
918 934 933 1 
919 934 1152 3 
920 656 422 3 
921 656 655 1 
922 656 934 3 
923 655 6213 2 
924 422 1152 3 
925 422 421 1 
926 1156 2162 3 
927 2162 2161 1 
928 1894 1700 3 
929 1894 1893 1 
930 1922 1894 3 
931 1922 1921 1 
932 1166 1700 3 
933 1166 1165 1 
934 1166 1922 3 
935 1166 1894 3 
936 2200 1902 3 
937 2200 2199 1 
938 2200 2404 3 
939 2448 2447 1 
940 1436 2448 3 
941 1935 2927 2 
942 2927 2928 1 
943 3170 2908 3 
944 3170 3169 1 
945 2908 2664 3 
946 2908 2907 1 
947 2664 3170 3 
948 2664 2663 1 
949 2663 2683 2 
950 3413 3669 2 
951 5409 5410 1 
952 5409 5427 2 
953 4893 5153 2 
954 403 5389 2 
955 5420 5886 3 
956 5420 5419 1 
957 5886 5698 3 
958 5886 5885 1 
959 5698 5420 3 
960 5698 5697 1 
961 5413 5659 2 
962 5922 892 3 
963 5922 5921 1 
964 164 5922 3 
965 164 163 1 
966 164 690 3 
967 892 164 3 
968 892 891 1 
969 5658 420 3 
970 5658 5657 1 
971 5650 5658 3 
972 5650 5649 1 
973 5398 420 3 
974 5398 5397 1 
975 5398 5650 3 
976 5398 5658 3 
977 420 5650 3 
978 420 419 1 
979 173 5911 2 
980 894 670 3 
981 894 893 1 
982 1178 894 3 
983 1178 1177 1 
984 6190 174 3 
985 6190 6189 1 
986 670 1178 3 
987 670 669 1 
988 5978 6190 3 
989 5978 5977 1 
990 174 5978 3 
991 174 173 1 
992 674 430 3 
993 674 673 1 
994 914 674 3 
995 914 913 1 
996 6213 6214 1 
997 6214 440 3 
998 440 439 1 
999 671 921 2 
1000 1181 1191 2 
1001 1155 1913 2 
1002 1155 1156 1 
1003 1913 1914 1 
1004 1435 1436 1 
1005 1435 2447 2 
1006 2186 2185 1 
1007 2431 2437 2 
1008 2928 2186 3 
1009 2688 2722 3 
1010 2688 2687 1 
1011 2185 2193 2 
1012 2722 2422 3 
1013 2722 2721 1 
1014 2422 2688 3 
1015 2422 2421 1 
1016 2900 2899 1 
1017 3402 2900 3 
1018 2159 2421 2 
1019 2159 2160 1 
1020 2899 3673 2 
1021 5687 5697 2 
1022 4390 5370 3 
1023 4390 4389 1 
1024 4390 5416 3 
1025 5166 4390 3 
1026 5166 5165 1 
1027 5416 5166 3 
1028 5416 5415 1 
1029 5454 6222 3 
1030 5454 5453 1 
1031 5425 5426 1 
1032 5370 5166 3 
1033 5370 5369 1 
1034 5370 5416 3 
1035 5444 5660 3 
1036 5444 5443 1 
1037 5660 5956 3 
1038 5660 5659 1 
1039 5183 5453 2 
1040 5956 5444 3 
1041 5956 5955 1 
1042 6218 424 3 
1043 5184 5183 1 
1044 5426 5184 3 
1045 5994 730 3 
1046 405 913 2 
1047 6198 5960 3 
1048 6198 6197 1 
1049 693 1177 2 
1050 669 945 2 
1051 406 405 1 
1052 5993 5994 1 
1053 694 693 1 
1054 5960 450 3 
1055 5960 5959 1 
1056 6195 6196 1 
1057 214 213 1 
1058 451 452 1 
1059 451 5993 2 
1060 452 214 3 
1061 221 222 1 
1062 439 665 2 
1063 682 672 3 
1064 682 681 1 
1065 682 710 3 
1066 710 936 3 
1067 710 709 1 
1068 936 682 3 
1069 936 935 1 
1070 672 936 3 
1071 672 671 1 
1072 672 710 3 
1073 726 1214 3 
1074 726 725 1 
1075 726 1226 3 
1076 922 921 1 
1077 1914 922 3 
1078 1453 1665 2 
1079 1665 1666 1 
1080 1411 1953 2 
1081 3171 3172 1 
1082 3171 3189 2 
1083 3674 3673 1 
1084 3976 3460 3 
1085 3460 3459 1 
1086 3707 3708 1 
1087 3429 3693 2 
1088 4684 4162 3 
1089 4684 4683 1 
1090 4162 4216 3 
1091 4162 4161 1 
1092 4162 4424 3 
1093 4441 4442 1 
1094 4683 4945 2 
1095 4216 4684 3 
1096 4216 4215 1 
1097 4216 4424 3 
1098 4424 4684 3 
1099 4424 4423 1 
1100 4934 4933 1 
1101 4913 5165 2 
1102 6222 5210 3 
1103 6222 6221 1 
1104 5210 5454 3 
1105 5210 5209 1 
1106 4432 4934 3 
1107 424 423 1 
1108 5969 5977 2 
1109 196 194 3 
1110 194 193 1 
1111 6197 6219 2 
1112 178 177 1 
1113 222 178 3 
1114 1180 458 3 
1115 1180 1179 1 
1116 458 436 3 
1117 458 457 1 
1118 436 1180 3 
1119 436 435 1 
1120 457 6199 2 
1121 709 1461 2 
1122 1942 1964 3 
1123 1942 1941 1 
1124 1217 1941 2 
1125 1720 1719 1 
1126 1720 2206 3 
1127 1964 1720 3 
1128 1964 1963 1 
1129 1964 2206 3 
1130 720 968 3 
1131 720 719 1 
1132 968 1710 3 
1133 968 967 1 
1134 2195 2196 1 
1135 2195 2207 2 
1136 2929 2930 1 
1137 3190 3189 1 
1138 2446 2930 3 
1139 2446 3458 3 
1140 2446 3190 3 
1141 3958 3946 3 
1142 3958 3957 1 
1143 3928 3458 3 
1144 3928 3927 1 
1145 3458 3712 3 
1146 3458 3457 1 
1147 3712 3928 3 
1148 3712 3711 1 
1149 4163 4164 1 
1150 3939 4163 2 
1151 3459 3957 2 
1152 4425 4955 2 
1153 3694 4956 3 
1154 3694 3693 1 
1155 3694 3934 3 
1156 3694 3932 3 
1157 3934 4956 3 
1158 3934 3933 1 
1159 3932 3934 3 
1160 3932 3931 1 
1161 4956 3932 3 
1162 4956 4955 1 
1163 4685 4686 1 
1164 3933 3959 2 
1165 4710 4709 1 
1166 5202 4710 3 
1167 4215 4437 2 
1168 4209 5451 2 
1169 4698 4448 3 
1170 4698 4697 1 
1171 4210 4698 3 
1172 4210 4209 1 
1173 4448 4210 3 
1174 4448 4447 1 
1175 4433 5717 2 
1176 5717 5718 1 
1177 5963 5979 2 
1178 5441 5442 1 
1179 5964 6174 3 
1180 5964 5963 1 
1181 6174 5206 3 
1182 6174 6173 1 
1183 5938 5964 3 
1184 5938 5937 1 
1185 5938 6174 3 
1186 5206 5964 3 
1187 5206 5205 1 
1188 5206 5938 3 
1189 5724 5714 3 
1190 5723 5724 1 
1191 5723 6221 2 
1192 5967 6173 2 
1193 5181 5182 1 
1194 198 197 1 
1195 462 198 3 
1196 215 6205 2 
1197 1457 1479 2 
1198 1713 1983 2 
1199 1710 720 3 
1200 1710 1709 1 
1201 1459 1709 2 
1202 3431 3432 1 
1203 2460 3472 3 
1204 2460 2459 1 
1205 3226 2704 3 
1206 3226 3225 1 
1207 3226 3424 3 
1208 2946 2704 3 
1209 2946 2945 1 
1210 2946 3226 3 
1211 3208 2190 3 
1212 3208 3984 3 
1213 3208 3207 1 
1214 3424 2946 3 
1215 3424 3423 1 
1216 2704 3424 3 
1217 2704 2703 1 
1218 2445 2446 1 
1219 2445 3207 2 
1220 3940 3706 3 
1221 3940 3939 1 
1222 3724 3940 3 
1223 3724 3723 1 
1224 3706 3724 3 
1225 3706 3705 1 
1226 3473 3474 1 
1227 3473 4193 2 
1228 4474 4206 3 
1229 4474 4473 1 
1230 4474 4988 3 
1231 4438 4206 3 
1232 4438 4437 1 
1233 4438 4474 3 
1234 5678 5677 1 
1235 5714 5713 1 
1236 5459 5469 2 
1237 201 5703 2 
1238 5713 6005 2 
1239 6220 6219 1 
1240 228 6220 3 
1241 949 1195 2 
1242 949 950 1 
1243 699 1215 2 
1244 1460 2216 3 
1245 1460 1459 1 
1246 1460 2462 3 
1247 2730 2236 3 
1248 2730 2729 1 
1249 2216 1982 3 
1250 2216 2215 1 
1251 2216 2230 3 
1252 1486 2236 3 
1253 1486 1485 1 
1254 1486 2730 3 
1255 1486 1736 3 
1256 2236 1736 3 
1257 2236 2235 1 
1258 1736 2730 3 
1259 1736 1735 1 
1260 1982 1460 3 
1261 1982 1981 1 
1262 1982 2462 3 
1263 2700 2460 3 
1264 2700 2699 1 
1265 2990 2966 3 
1266 2990 2989 1 
1267 2189 2953 2 
1268 2953 2954 1 
1269 4436 3482 3 
1270 4436 4435 1 
1271 4202 3462 3 
1272 4202 4201 1 
1273 4202 4436 3 
1274 3482 4202 3 
1275 3482 3481 1 
1276 3462 3482 3 
1277 3462 3461 1 
1278 3462 4436 3 
1279 4479 4713 2 
1280 5227 5235 2 
1281 3751 3752 1 
1282 3751 4015 2 
1283 4015 4016 1 
1284 5460 5756 3 
1285 5460 5459 1 
1286 202 5468 3 
1287 202 201 1 
1288 202 5992 3 
1289 202 230 3 
1290 230 5992 3 
1291 230 229 1 
1292 5992 5468 3 
1293 5992 5991 1 
1294 5468 230 3 
1295 5468 5467 1 
1296 5247 5497 2 
1297 5497 5498 1 
1298 5477 5478 1 
1299 5477 5719 2 
1300 5709 5710 1 
1301 971 972 1 
1302 463 971 2 
1303 6000 5456 3 
1304 6000 5999 1 
1305 4998 6000 3 
1306 4998 4997 1 
1307 972 1004 3 
1308 1004 750 3 
1309 1004 1003 1 
1310 734 1004 3 
1311 734 733 1 
1312 734 972 3 
1313 750 734 3 
1314 750 749 1 
1315 476 972 3 
1316 476 750 3 
1317 988 260 3 
1318 260 259 1 
1319 260 476 3 
1320 987 988 1 
1321 987 6229 2 
1322 1196 966 3 
1323 1196 1195 1 
1324 738 1196 3 
1325 738 737 1 
1326 5 733 2 
1327 966 738 3 
1328 966 965 1 
1329 966 990 3 
1330 990 738 3 
1331 990 989 1 
1332 990 1196 3 
1333 1245 1246 1 
1334 2230 2462 3 
1335 1253 1981 2 
1336 2229 2230 1 
1337 2745 2746 1 
1338 1995 2745 2 
1339 2213 2249 2 
1340 2710 2990 3 
1341 2710 2709 1 
1342 2954 3464 3 
1343 2954 2976 3 
1344 2976 3464 3 
1345 2976 3234 3 
1346 3464 3463 1 
1347 2738 2954 3 
1348 2738 3464 3 
1349 2738 3234 3 
1350 4254 4253 1 
1351 4984 4254 3 
1352 4757 4758 1 
1353 3453 3454 1 
1354 3453 3743 2 
1355 4223 4224 1 
1356 4223 4757 2 
1357 4259 4721 2 
1358 4232 4231 1 
1359 4016 4232 3 
1360 4978 5510 3 
1361 5510 5509 1 
1362 5233 5509 2 
1363 4990 5222 3 
1364 4990 4989 1 
1365 4722 4990 3 
1366 4722 4721 1 
1367 5222 4722 3 
1368 5222 5221 1 
1369 4284 5222 3 
1370 4284 4283 1 
1371 4284 4722 3 
1372 4284 4990 3 
1373 5982 254 3 
1374 5982 5981 1 
1375 508 5982 3 
1376 508 507 1 
1377 5974 226 3 
1378 5974 5973 1 
1379 236 242 3 
1380 236 5974 3 
1381 236 235 1 
1382 242 5974 3 
1383 242 226 3 
1384 242 241 1 
1385 226 236 3 
1386 226 225 1 
1387 254 508 3 
1388 254 253 1 
1389 241 5709 2 
1390 475 476 1 
1391 243 475 2 
1392 5981 6007 2 
1393 45 5999 2 
1394 45 46 1 
1395 46 5730 3 
1396 5730 5729 1 
1397 259 753 2 
1398 753 754 1 
1399 713 1201 2 
1400 1240 6 3 
1401 6 5 1 
1402 1232 1492 3 
1403 1232 1231 1 
1404 1232 2246 3 
1405 1717 1718 1 
1406 1507 2225 2 
1407 1271 1517 2 
1408 2506 2505 1 
1409 1538 2506 3 
1410 1996 1995 1 
1411 2490 2248 3 
1412 2490 2489 1 
1413 2490 3448 3 
1414 2746 1996 3 
1415 2248 3012 3 
1416 2248 2247 1 
1417 2248 3448 3 
1418 3012 2490 3 
1419 3012 3011 1 
1420 3448 3012 3 
1421 3448 3447 1 
1422 3015 3525 2 
1423 4237 4238 1 
1424 4758 4724 3 
1425 4724 4723 1 
1426 4231 4751 2 
1427 3771 4723 2 
1428 266 265 1 
1429 5732 266 3 
1430 5455 6223 2 
1431 1006 6224 3 
1432 1006 1005 1 
1433 1006 6008 3 
1434 250 6008 3 
1435 250 249 1 
1436 250 1006 3 
1437 249 5517 2 
1438 247 5753 2 
1439 487 6041 2 
1440 10 6042 3 
1441 1239 1240 1 
1442 485 1239 2 
1443 233 269 2 
1444 269 270 1 
1445 1011 1483 2 
1446 515 516 1 
1447 515 1263 2 
1448 3 747 2 
1449 268 1024 3 
1450 1012 782 3 
1451 1012 1011 1 
1452 1012 1030 3 
1453 1012 1276 3 
1454 234 233 1 
1455 486 485 1 
1456 1242 486 3 
1457 1241 1242 1 
1458 1024 1023 1 
1459 510 766 3 
1460 510 509 1 
1461 470 510 3 
1462 470 469 1 
1463 470 492 3 
1464 509 1243 2 
1465 766 470 3 
1466 766 765 1 
1467 492 766 3 
1468 492 491 1 
1469 492 510 3 
1470 741 742 1 
1471 741 973 2 
1472 2012 1748 3 
1473 2012 2011 1 
1474 1766 1724 3 
1475 1766 1765 1 
1476 1766 2012 3 
1477 1748 1766 3 
1478 1748 1747 1 
1479 1008 1280 3 
1480 1008 1007 1 
1481 1008 1508 3 
1482 1786 1008 3 
1483 1786 1785 1 
1484 1280 1786 3 
1485 1280 1279 1 
1486 1508 1280 3 
1487 1508 1507 1 
1488 1508 1786 3 
1489 2741 2742 1 
1490 2253 2254 1 
1491 1723 2253 2 
1492 2011 2741 2 
1493 2269 2981 2 
1494 1518 2492 3 
1495 1518 2254 3 
1496 2254 2280 3 
1497 2254 2786 3 
1498 2280 2279 1 
1499 2280 2492 3 
1500 2280 2786 3 
1501 2785 2786 1 
1502 2496 2536 3 
1503 2491 2492 1 
1504 2491 2493 2 
1505 2536 2535 1 
1506 3223 3224 1 
1507 2495 2496 1 
1508 2535 3001 2 
1509 2514 3484 3 
1510 2514 2513 1 
1511 3002 2778 3 
1512 3002 3001 1 
1513 3002 3006 3 
1514 3496 3022 3 
1515 2778 3006 3 
1516 2778 2777 1 
1517 2992 2778 3 
1518 2992 2991 1 
1519 2992 3002 3 
1520 2998 2514 3 
1521 2998 2997 1 
1522 3006 2992 3 
1523 3006 3005 1 
1524 3985 4257 2 
1525 3261 3545 2 
1526 2983 2984 1 
1527 2983 2997 2 
1528 4257 4258 1 
1529 3303 3304 1 
1530 3534 3316 3 
1531 3534 3533 1 
1532 3760 3238 3 
1533 3760 3759 1 
1534 3759 3767 2 
1535 3502 3501 1 
1536 3992 3502 3 
1537 3013 4513 2 
1538 3543 3811 2 
1539 3769 4503 2 
1540 4017 4285 2 
1541 3505 3765 2 
1542 4250 4249 1 
1543 4750 4250 3 
1544 4271 4743 2 
1545 3812 3016 3 
1546 3812 3811 1 
1547 3798 3812 3 
1548 3798 3797 1 
1549 4749 4750 1 
1550 4749 5045 2 
1551 4238 4228 3 
1552 4289 4497 2 
1553 5027 5028 1 
1554 4509 4727 2 
1555 4510 5530 3 
1556 4510 4509 1 
1557 4776 4510 3 
1558 4776 4775 1 
1559 5530 4776 3 
1560 5530 5529 1 
1561 4243 4495 2 
1562 4781 5529 2 
1563 4493 4735 2 
1564 4735 4736 1 
1565 4999 5237 2 
1566 4773 5013 2 
1567 5013 5014 1 
1568 5015 5519 2 
1569 4777 5273 2 
1570 6019 6225 2 
1571 5255 5747 2 
1572 5512 6020 3 
1573 5512 5511 1 
1574 500 16 3 
1575 500 499 1 
1576 6034 500 3 
1577 6034 6033 1 
1578 6020 5770 3 
1579 6020 6019 1 
1580 5731 5732 1 
1581 16 6034 3 
1582 16 15 1 
1583 5003 5515 2 
1584 6001 6002 1 
1585 6001 6009 2 
1586 6018 474 3 
1587 6018 6017 1 
1588 6014 6018 3 
1589 6014 6013 1 
1590 6011 6021 2 
1591 30 6016 3 
1592 30 29 1 
1593 30 5516 3 
1594 5516 6016 3 
1595 5516 5515 1 
1596 520 30 3 
1597 520 519 1 
1598 520 5516 3 
1599 6016 520 3 
1600 6016 6015 1 
1601 5765 6013 2 
1602 474 6014 3 
1603 474 473 1 
1604 24 474 3 
1605 24 23 1 
1606 24 6018 3 
1607 24 6014 3 
1608 787 1029 2 
1609 34 248 3 
1610 34 33 1 
1611 34 6022 3 
1612 12 34 3 
1613 12 11 1 
1614 12 6022 3 
1615 763 764 1 
1616 6022 248 3 
1617 6022 6021 1 
1618 271 763 2 
1619 248 12 3 
1620 248 247 1 
1621 1030 782 3 
1622 1030 1029 1 
1623 1276 1030 3 
1624 1276 1275 1 
1625 782 1276 3 
1626 782 781 1 
1627 757 758 1 
1628 757 1509 2 
1629 6051 6052 1 
1630 11 6051 2 
1631 778 1042 3 
1632 778 777 1 
1633 1244 778 3 
1634 1244 1243 1 
1635 1259 1269 2 
1636 1042 1244 3 
1637 1042 1041 1 
1638 781 1523 2 
1639 1019 1779 2 
1640 1780 1034 3 
1641 1780 1779 1 
1642 2020 1780 3 
1643 2020 2019 1 
1644 1034 2020 3 
1645 1034 1033 1 
1646 1746 1034 3 
1647 1746 1745 1 
1648 1746 1780 3 
1649 1746 2020 3 
1650 1526 320 3 
1651 1526 1525 1 
1652 1279 2019 2 
1653 320 762 3 
1654 320 319 1 
1655 1525 1765 2 
1656 1744 2024 3 
1657 2024 2023 1 
1658 2023 2293 2 
1659 1751 2769 2 
1660 2510 2509 1 
1661 2266 2770 3 
1662 2266 2265 1 
1663 2294 2266 3 
1664 2294 2293 1 
1665 2274 2266 3 
1666 2274 2273 1 
1667 2274 2294 3 
1668 2274 2770 3 
1669 2770 2294 3 
1670 2770 2769 1 
1671 1773 2297 2 
1672 1768 2510 3 
1673 2740 2739 1 
1674 2740 2982 3 
1675 1283 1521 2 
1676 2982 2981 1 
1677 2504 2740 3 
1678 2504 2982 3 
1679 1503 2761 2 
1680 2298 2526 3 
1681 2298 2297 1 
1682 2525 2785 2 
1683 2526 2764 3 
1684 2526 2525 1 
1685 2764 2298 3 
1686 2764 2763 1 
1687 2276 2018 3 
1688 2276 2275 1 
1689 2754 2276 3 
1690 2754 2753 1 
1691 2508 2276 3 
1692 2508 2507 1 
1693 2508 2754 3 
1694 2018 2508 3 
1695 2018 2017 1 
1696 2018 2754 3 
1697 2017 2513 2 
1698 3022 3021 1 
1699 2792 3268 3 
1700 2792 2791 1 
1701 3268 2768 3 
1702 3268 3267 1 
1703 2768 2792 3 
1704 2768 2767 1 
1705 2777 3787 2 
1706 3271 3495 2 
1707 3304 3550 3 
1708 2301 2302 1 
1709 2301 2797 2 
1710 3550 3549 1 
1711 3495 3496 1 
1712 4258 3522 3 
1713 3029 4023 2 
1714 3316 2524 3 
1715 3316 3315 1 
1716 3316 3790 3 
1717 3522 3521 1 
1718 3278 4258 3 
1719 3278 3522 3 
1720 3004 3030 3 
1721 3004 3003 1 
1722 3756 3004 3 
1723 3756 3755 1 
1724 3030 3756 3 
1725 3030 3029 1 
1726 3030 3278 3 
1727 3790 3534 3 
1728 3790 3789 1 
1729 2524 3534 3 
1730 2524 2523 1 
1731 2524 3790 3 
1732 3538 3034 3 
1733 3538 3537 1 
1734 3286 3288 3 
1735 2783 3269 2 
1736 3269 3270 1 
1737 4046 4028 3 
1738 4046 4045 1 
1739 4028 3544 3 
1740 4028 4027 1 
1741 3014 3544 3 
1742 3014 3013 1 
1743 3014 4028 3 
1744 3014 4046 3 
1745 4285 4286 1 
1746 4011 4012 1 
1747 3544 4046 3 
1748 3544 3543 1 
1749 4526 4788 3 
1750 4526 4525 1 
1751 4788 4246 3 
1752 4788 4787 1 
1753 3527 3528 1 
1754 3527 3777 2 
1755 4274 4788 3 