ITEM: TIMESTEP
12760
ITEM: NUMBER OF ENTRIES
3638
ITEM: BOX BOUNDS pp pp ff
0.0000000000000000e+00 7.2168784000000002e+01
0.0000000000000000e+00 7.2168784000000002e+01
0.0000000000000000e+00 1.2000000000000000e+01
ITEM: ENTRIES index c_1[1] c_1[2] c_1[3]
1 6010 6242 3 
2 6242 6241 1 
3 505 506 1 
4 745 746 1 
5 269 270 1 
6 1761 1762 1 
7 1251 1252 1 
8 1001 1002 1 
9 1515 1516 1 
10 1501 1502 1 
11 1755 1756 1 
12 1525 1526 1 
13 1271 1272 1 
14 1995 1996 1 
15 2761 2762 1 
16 2731 2732 1 
17 2777 2778 1 
18 3001 3002 1 
19 3494 3493 1 
20 3511 3512 1 
21 4021 4022 1 
22 3253 3254 1 
23 3493 4021 2 
24 3761 3762 1 
25 3721 3722 1 
26 4503 4504 1 
27 3773 3774 1 
28 4499 4500 1 
29 4757 4758 1 
30 4283 4284 1 
31 4741 4742 1 
32 6224 6008 3 
33 5501 5502 1 
34 6008 6007 1 
35 6223 6224 1 
36 511 512 1 
37 511 21 2 
38 6009 6010 1 
39 23 24 1 
40 529 530 1 
41 251 252 1 
42 501 502 1 
43 233 234 1 
44 233 269 2 
45 522 521 1 
46 526 522 3 
47 526 1022 3 
48 270 522 3 
49 1019 1020 1 
50 1039 1040 1 
51 1043 1044 1 
52 757 758 1 
53 1279 1280 1 
54 3006 2992 3 
55 2992 2991 1 
56 2261 2262 1 
57 2521 2522 1 
58 2771 2772 1 
59 2511 2512 1 
60 3013 3014 1 
61 3015 3016 1 
62 4513 4514 1 
63 4271 4272 1 
64 4282 4281 1 
65 4755 4756 1 
66 5281 5282 1 
67 5525 5526 1 
68 5003 5004 1 
69 6231 6232 1 
70 6003 6004 1 
71 6013 6014 1 
72 5765 5766 1 
73 5765 6013 2 
74 5771 5772 1 
75 6023 6024 1 
76 273 274 1 
77 273 541 2 
78 541 542 1 
79 531 532 1 
80 261 531 2 
81 283 284 1 
82 535 536 1 
83 535 1021 2 
84 1021 1022 1 
85 767 768 1 
86 271 272 1 
87 1025 1026 1 
88 539 540 1 
89 1033 1034 1 
90 1283 1284 1 
91 2535 2536 1 
92 3005 3006 1 
93 3041 3042 1 
94 2765 2766 1 
95 3271 3272 1 
96 3264 3034 3 
97 3264 3263 1 
98 3034 3538 3 
99 3034 3033 1 
100 3538 3264 3 
101 3538 3537 1 
102 3290 2784 3 
103 3525 3526 1 
104 3303 3304 1 
105 4523 4524 1 
106 4281 4787 2 
107 4787 4788 1 
108 5253 5254 1 
109 4783 4784 1 
110 5015 5016 1 
111 6031 6032 1 
112 33 34 1 
113 6051 6052 1 
114 31 32 1 
115 5773 5774 1 
116 523 524 1 
117 1067 1068 1 
118 795 796 1 
119 1289 1290 1 
120 1053 1054 1 
121 1781 1782 1 
122 1282 1281 1 
123 1521 1522 1 
124 1295 1296 1 
125 1773 1774 1 
126 2043 2044 1 
127 1303 1304 1 
128 2033 2034 1 
129 1787 1788 1 
130 2301 2302 1 
131 2021 2022 1 
132 3055 3056 1 
133 3547 3548 1 
134 3311 3312 1 
135 3311 3547 2 
136 3555 3556 1 
137 3555 3781 2 
138 4052 3804 3 
139 4553 4554 1 
140 4767 4768 1 
141 4315 4316 1 
142 5291 5292 1 
143 5053 5054 1 
144 5032 5031 1 
145 5295 5296 1 
146 5054 5032 3 
147 5283 5284 1 
148 5823 5824 1 
149 5299 5300 1 
150 5271 5272 1 
151 5797 5798 1 
152 5309 5310 1 
153 5543 5544 1 
154 5779 5780 1 
155 5801 5802 1 
156 35 36 1 
157 35 6035 2 
158 6035 6036 1 
159 537 538 1 
160 6071 6072 1 
161 321 322 1 
162 6057 6058 1 
163 553 554 1 
164 1057 1058 1 
165 791 792 1 
166 1058 552 3 
167 545 546 1 
168 295 296 1 
169 552 551 1 
170 533 534 1 
171 1541 1542 1 
172 1571 1572 1 
173 1302 1301 1 
174 1315 1316 1 
175 1572 1302 3 
176 1823 1824 1 
177 1321 1322 1 
178 2331 2332 1 
179 2047 2048 1 
180 2571 2572 1 
181 2801 2802 1 
182 3534 2524 3 
183 3534 3533 1 
184 3316 3534 3 
185 3316 3315 1 
186 2524 3316 3 
187 2524 2523 1 
188 3283 3284 1 
189 3791 3792 1 
190 4309 4310 1 
191 4309 4543 2 
192 4301 4302 1 
193 4791 4792 1 
194 4801 4802 1 
195 4805 4806 1 
196 5332 5331 1 
197 5294 5332 3 
198 5552 5542 3 
199 5793 5794 1 
200 5542 5541 1 
201 5557 5558 1 
202 63 5557 2 
203 5805 5806 1 
204 6064 52 3 
205 52 51 1 
206 6044 6043 1 
207 322 6044 3 
208 315 316 1 
209 315 6057 2 
210 75 76 1 
211 6053 6054 1 
212 561 562 1 
213 783 784 1 
214 589 590 1 
215 313 314 1 
216 815 816 1 
217 1323 1324 1 
218 551 1323 2 
219 1071 1072 1 
220 581 582 1 
221 827 828 1 
222 1073 1074 1 
223 1333 1334 1 
224 1577 1578 1 
225 1825 1826 1 
226 2823 2824 1 
227 2551 2552 1 
228 3565 3566 1 
229 3317 3318 1 
230 2799 2800 1 
231 3296 3036 3 
232 3036 3035 1 
233 3301 3302 1 
234 3295 3296 1 
235 3581 3582 1 
236 3541 3542 1 
237 3541 3791 2 
238 4065 4066 1 
239 4571 4572 1 
240 3331 3332 1 
241 3589 3590 1 
242 3573 3574 1 
243 4543 4544 1 
244 4551 4552 1 
245 4325 4326 1 
246 3823 3824 1 
247 3825 3826 1 
248 4073 4074 1 
249 5073 5074 1 
250 4297 4298 1 
251 4577 4578 1 
252 5051 5052 1 
253 5051 5573 2 
254 5573 5574 1 
255 5563 5564 1 
256 5563 5811 2 
257 5785 5786 1 
258 5041 5042 1 
259 5041 5785 2 
260 5786 5812 3 
261 5812 5811 1 
262 5814 5302 3 
263 6061 6062 1 
264 5302 5301 1 
265 323 324 1 
266 6062 64 3 
267 64 63 1 
268 61 62 1 
269 327 328 1 
270 71 72 1 
271 811 812 1 
272 823 824 1 
273 82 564 3 
274 1083 1084 1 
275 1083 1563 2 
276 1339 1340 1 
277 2077 2078 1 
278 1821 1822 1 
279 2341 2342 1 
280 2063 2064 1 
281 2581 2582 1 
282 2583 2584 1 
283 3071 3072 1 
284 3551 3552 1 
285 3582 3322 3 
286 3322 3321 1 
287 3602 3832 3 
288 3832 3831 1 
289 3833 3834 1 
290 4072 3572 3 
291 3572 3571 1 
292 5061 5062 1 
293 4605 4606 1 
294 4605 5061 2 
295 4581 4582 1 
296 4335 4336 1 
297 5071 5072 1 
298 5081 5082 1 
299 4573 4574 1 
300 5333 5334 1 
301 5561 5562 1 
302 5327 5328 1 
303 6089 6090 1 
304 93 94 1 
305 331 332 1 
306 586 585 1 
307 107 108 1 
308 81 82 1 
309 595 596 1 
310 1341 1342 1 
311 1341 1831 2 
312 1831 1832 1 
313 861 862 1 
314 841 842 1 
315 1565 1566 1 
316 2577 2578 1 
317 2585 2586 1 
318 2349 2350 1 
319 2349 2585 2 
320 2335 2336 1 
321 4091 4092 1 
322 3863 3864 1 
323 3601 3602 1 
324 3593 3594 1 
325 4081 4082 1 
326 4071 4072 1 
327 4321 4322 1 
328 4321 4351 2 
329 5079 5080 1 
330 5593 5594 1 
331 5097 5098 1 
332 5091 5092 1 
333 6103 6104 1 
334 91 92 1 
335 6085 6086 1 
336 6095 6096 1 
337 832 586 3 
338 831 832 1 
339 596 1092 3 
340 1092 1091 1 
341 1351 1352 1 
342 2849 2850 1 
343 2333 2334 1 
344 2333 2849 2 
345 1857 1858 1 
346 2616 2615 1 
347 1858 2616 3 
348 3351 3352 1 
349 2862 2861 1 
350 3084 2862 3 
351 3341 3342 1 
352 3851 3852 1 
353 3853 3854 1 
354 3343 3344 1 
355 4105 4106 1 
356 5345 5346 1 
357 5094 5093 1 
358 4331 4332 1 
359 5102 5094 3 
360 5861 5862 1 
361 5599 5600 1 
362 5600 5622 3 
363 5622 5621 1 
364 5351 5352 1 
365 6109 6110 1 
366 5841 5842 1 
367 101 102 1 
368 333 334 1 
369 113 114 1 
370 5881 5882 1 
371 875 876 1 
372 1091 1103 2 
373 1103 1104 1 
374 621 622 1 
375 1353 1354 1 
376 1605 1606 1 
377 2115 2116 1 
378 1835 1836 1 
379 1835 2115 2 
380 2091 2092 1 
381 2363 2364 1 
382 2845 2846 1 
383 2894 2864 3 
384 2864 2863 1 
385 2101 2102 1 
386 2893 2894 1 
387 3105 3106 1 
388 3849 3850 1 
389 4107 4108 1 
390 4611 4612 1 
391 4845 4846 1 
392 4845 5119 2 
393 5119 5120 1 
394 5611 5612 1 
395 5375 5376 1 
396 5637 5638 1 
397 5342 5372 3 
398 5372 5371 1 
399 877 878 1 
400 369 370 1 
401 369 635 2 
402 635 636 1 
403 1127 1128 1 
404 1349 1350 1 
405 1387 1388 1 
406 1387 1609 2 
407 1609 1610 1 
408 1113 1114 1 
409 1853 1854 1 
410 1615 1616 1 
411 1373 1374 1 
412 1875 1876 1 
413 2873 2874 1 
414 3123 3124 1 
415 3111 3112 1 
416 3623 3624 1 
417 4591 4592 1 
418 5131 5132 1 
419 4393 4394 1 
420 4393 5131 2 
421 5123 5124 1 
422 5123 5133 2 
423 5133 5134 1 
424 5371 6119 2 
425 6119 6120 1 
426 5871 5872 1 
427 117 118 1 
428 6121 6122 1 
429 653 654 1 
430 623 624 1 
431 1136 1135 1 
432 1401 1402 1 
433 1393 1394 1 
434 2141 2142 1 
435 1631 1632 1 
436 1131 1132 1 
437 1861 1862 1 
438 2131 2132 1 
439 2111 2112 1 
440 2113 2114 1 
441 1871 1872 1 
442 2621 2622 1 
443 2127 2128 1 
444 2625 2626 1 
445 2619 2620 1 
446 2619 2853 2 
447 2853 2854 1 
448 3643 3644 1 
449 3883 3884 1 
450 3125 3126 1 
451 3143 3144 1 
452 3375 3376 1 
453 3375 3883 2 
454 4121 4122 1 
455 4395 4396 1 
456 3371 3372 1 
457 4893 4894 1 
458 4111 4112 1 
459 4897 4898 1 
460 4899 4900 1 
461 4631 4632 1 
462 4631 4899 2 
463 5151 5152 1 
464 4877 4878 1 
465 4879 4880 1 
466 5625 5626 1 
467 5395 5396 1 
468 5395 5631 2 
469 5631 5632 1 
470 5633 5634 1 
471 6141 6142 1 
472 121 122 1 
473 6143 6144 1 
474 6169 6170 1 
475 151 152 1 
476 151 641 2 
477 641 642 1 
478 141 142 1 
479 143 144 1 
480 1623 1624 1 
481 1147 1148 1 
482 1143 1144 1 
483 2173 2174 1 
484 1881 1882 1 
485 2374 2373 1 
486 2174 2374 3 
487 2393 2394 1 
488 2647 2648 1 
489 2381 2382 1 
490 3667 3668 1 
491 3391 3392 1 
492 3901 3902 1 
493 3621 3622 1 
494 2865 2866 1 
495 2865 3901 2 
496 4143 4144 1 
497 5373 5374 1 
498 5127 5128 1 
499 5635 5636 1 
500 5374 4884 3 
501 5641 5642 1 
502 5383 5384 1 
503 5883 5884 1 
504 6167 6168 1 
505 6153 6154 1 
506 111 112 1 
507 111 5391 2 
508 5391 5392 1 
509 6161 6162 1 
510 132 902 3 
511 902 901 1 
512 929 930 1 
513 1383 1384 1 
514 1161 1162 1 
515 1883 1884 1 
516 1381 1382 1 
517 1893 1894 1 
518 2871 2872 1 
519 2871 2907 2 
520 2907 2908 1 
521 3165 3166 1 
522 3151 3152 1 
523 2654 2653 1 
524 2913 2914 1 
525 3161 3162 1 
526 4141 4142 1 
527 2905 2906 1 
528 3665 3666 1 
529 3163 3173 2 
530 4133 4134 1 
531 3923 3924 1 
532 3377 3378 1 
533 4135 4136 1 
534 4167 4168 1 
535 4643 4644 1 
536 4923 4924 1 
537 3893 3894 1 
538 4911 4912 1 
539 5167 5168 1 
540 4884 4883 1 
541 4865 4866 1 
542 378 377 1 
543 112 378 3 
544 5901 5902 1 
545 665 666 1 
546 429 430 1 
547 439 440 1 
548 1911 1912 1 
549 1903 1904 1 
550 1923 1924 1 
551 1901 1902 1 
552 2413 2414 1 
553 2670 2192 3 
554 2933 2934 1 
555 3152 2654 3 
556 2655 2656 1 
557 3395 3396 1 
558 4673 4674 1 
559 4421 4422 1 
560 4155 4156 1 
561 4153 4154 1 
562 4428 4427 1 
563 4674 4428 3 
564 4663 4664 1 
565 4195 5155 2 
566 5155 5156 1 
567 5403 5404 1 
568 5411 5412 1 
569 6177 6178 1 
570 401 402 1 
571 913 914 1 
572 459 460 1 
573 187 188 1 
574 1431 1432 1 
575 1413 1414 1 
576 925 926 1 
577 1453 1454 1 
578 1921 1922 1 
579 1441 1442 1 
580 1671 1672 1 
581 1155 1156 1 
582 1913 1914 1 
583 2411 2412 1 
584 1949 1950 1 
585 2183 2184 1 
586 2192 2191 1 
587 2901 2902 1 
588 2663 2664 1 
589 3674 3673 1 
590 2925 2926 1 
591 3172 3674 3 
592 4175 4176 1 
593 3401 3402 1 
594 3203 3204 1 
595 3203 4175 2 
596 3681 3682 1 
597 3693 3694 1 
598 3675 3676 1 
599 4423 4424 1 
600 4921 4922 1 
601 4173 4174 1 
602 3915 3916 1 
603 5174 5186 3 
604 5683 5684 1 
605 5925 5926 1 
606 5673 5674 1 
607 5956 5955 1 
608 5444 5956 3 
609 5675 5676 1 
610 6203 6204 1 
611 173 174 1 
612 432 6192 3 
613 6192 6191 1 
614 701 702 1 
615 935 936 1 
616 936 682 3 
617 1215 1216 1 
618 682 681 1 
619 677 678 1 
620 1665 1666 1 
621 1411 1412 1 
622 1933 1934 1 
623 2171 2172 1 
624 2437 2438 1 
625 2431 2432 1 
626 2923 2924 1 
627 2932 2931 1 
628 2682 2932 3 
629 2955 2956 1 
630 3171 3172 1 
631 2681 2682 1 
632 3431 3432 1 
633 3187 3188 1 
634 3475 3476 1 
635 3421 3422 1 
636 2945 2946 1 
637 3671 3672 1 
638 3422 3702 3 
639 3413 3414 1 
640 4691 4692 1 
641 4431 4432 1 
642 4945 4946 1 
643 5173 5174 1 
644 4433 4434 1 
645 5445 5446 1 
646 5207 5208 1 
647 5209 5210 1 
648 5674 5936 3 
649 5936 5935 1 
650 5933 5934 1 
651 5443 5444 1 
652 5931 5932 1 
653 6163 6164 1 
654 441 442 1 
655 213 214 1 
656 221 222 1 
657 705 706 1 
658 951 952 1 
659 451 452 1 
660 471 472 1 
661 471 661 2 
662 1197 1198 1 
663 1444 1443 1 
664 1681 1682 1 
665 1203 1204 1 
666 1941 1942 1 
667 1697 1698 1 
668 2441 2442 1 
669 1963 1964 1 
670 1967 1968 1 
671 2207 2208 1 
672 2451 2452 1 
673 3471 3472 1 
674 2701 2702 1 
675 2703 2704 1 
676 3221 3222 1 
677 3701 3975 2 
678 3975 3976 1 
679 3702 3701 1 
680 3961 3962 1 
681 4445 4446 1 
682 3973 3974 1 
683 4437 4438 1 
684 4683 4684 1 
685 4935 4936 1 
686 4961 4962 1 
687 5191 5192 1 
688 5447 5448 1 
689 5205 5206 1 
690 209 210 1 
691 5691 5692 1 
692 6195 6196 1 
693 191 192 1 
694 971 972 1 
695 224 662 3 
696 223 224 1 
697 700 1444 3 
698 1225 1226 1 
699 1199 1200 1 
700 211 212 1 
701 699 700 1 
702 1943 1944 1 
703 1481 1482 1 
704 1481 2239 2 
705 1961 1962 1 
706 3461 3462 1 
707 3191 3192 1 
708 3443 3444 1 
709 3473 3474 1 
710 3205 3206 1 
711 3971 3972 1 
712 3993 3994 1 
713 3695 3696 1 
714 4213 4214 1 
715 4439 4440 1 
716 4472 4471 1 
717 3994 4472 3 
718 4972 4971 1 
719 4951 4952 1 
720 4965 4966 1 
721 4455 4456 1 
722 5473 5474 1 
723 5961 5962 1 
724 461 462 1 
725 203 204 1 
726 5965 5966 1 
727 6213 6214 1 
728 475 476 1 
729 479 480 1 
730 463 464 1 
731 463 971 2 
732 1201 1202 1 
733 713 714 1 
734 713 1201 2 
735 1227 1228 1 
736 1476 1488 3 
737 735 736 1 
738 1488 1487 1 
739 1993 1994 1 
740 1221 1222 1 
741 1981 1982 1 
742 1973 1974 1 
743 1451 1452 1 
744 1211 1212 1 
745 1211 1221 2 
746 1713 1714 1 
747 2729 2730 1 
748 1955 1956 1 
749 2737 2738 1 
750 3463 3464 1 
751 2475 2476 1 
752 5215 5216 1 
753 4987 4988 1 
754 4483 4484 1 
755 4725 4726 1 
756 4711 4712 1 
757 4989 4990 1 
758 4251 4252 1 
759 4251 4711 2 
760 4975 4976 1 
761 5225 5226 1 
762 5223 5224 1 
763 5703 5704 1 
764 5233 5234 1 
765 235 236 1 
766 1003 1004 1 
767 741 742 1 
768 751 752 1 
769 1475 1476 1 
770 997 998 1 
771 1491 1492 1 
772 1991 1992 1 
773 2245 2246 1 
774 1983 1984 1 
775 2461 2462 1 
776 2243 2244 1 
777 1741 1742 1 
778 1741 2243 2 
779 2473 2474 1 
780 2743 2744 1 
781 1721 1722 1 
782 1721 2473 2 
783 3209 3210 1 
784 3741 3742 1 
785 3963 3964 1 
786 3483 3484 1 
787 3483 3741 2 
788 3225 3226 1 
789 3225 3963 2 
790 4241 4242 1 
791 3751 3752 1 
792 4479 4480 1 
793 4223 4224 1 
794 5221 5222 1 
795 4461 4462 1 
796 4501 4502 1 
797 4991 4992 1 
798 5491 5492 1 
799 4721 4722 1 
800 5723 5724 1 
801 6233 6234 1 
802 5731 5732 1 
803 5993 5994 1 
804 257 258 1 
805 253 254 1 
806 733 734 1 
807 487 488 1 
808 473 474 1 
809 1011 1012 1 
810 1233 1234 1 
811 1485 1486 1 
812 2961 2962 1 
813 2251 2252 1 
814 2251 2489 2 
815 2489 2490 1 
816 2975 2976 1 
817 3009 3010 1 
818 3491 3492 1 
819 3989 3990 1 
820 3758 3494 3 
821 3757 3758 1 
822 3243 3244 1 
823 3243 4491 2 
824 4491 4492 1 
825 3731 3732 1 
826 4231 4232 1 
827 4735 4736 1 
828 4758 4724 3 
829 4493 4494 1 
830 4493 4735 2 
831 4724 4723 1 
832 4999 5000 1 
833 5013 5014 1 
834 6245 6246 1 
835 5471 5472 1 
836 5742 5256 3 
837 6001 6002 1 
838 243 244 1 
839 5983 5984 1 
840 249 250 1 
841 763 764 1 
842 17 18 1 
843 1005 1006 1 
844 1029 1030 1 
845 1013 1014 1 
846 1255 1256 1 
847 1263 1264 1 
848 2019 2020 1 
849 755 756 1 
850 1273 1274 1 
851 1785 1786 1 
852 1007 1008 1 
853 1509 1510 1 
854 2015 2016 1 
855 1757 1758 1 
856 1517 1518 1 
857 2273 2274 1 
858 1519 1520 1 
859 2269 2270 1 
860 2003 2029 2 
861 2503 2504 1 
862 1751 1752 1 
863 1751 2769 2 
864 2769 2770 1 
865 2271 2272 1 
866 2276 2508 3 
867 2276 2275 1 
868 2481 2482 1 
869 2504 2740 3 
870 2740 2739 1 
871 2513 2514 1 
872 3277 3278 1 
873 3011 3012 1 
874 3985 3986 1 
875 3495 3496 1 
876 3029 3030 1 
877 3517 3518 1 
878 3529 3530 1 
879 3513 3514 1 
880 3755 3756 1 
881 3767 3768 1 
882 4237 4238 1 
883 3765 3766 1 
884 3743 3744 1 
885 3771 3772 1 
886 3766 4744 3 
887 4744 4743 1 
888 3769 3770 1 
889 4253 4254 1 
890 4245 4246 1 
891 5241 5242 1 
892 4521 4522 1 
893 5503 5504 1 
894 4761 4762 1 
895 5008 5280 3 
896 5263 5264 1 
897 5533 5534 1 
898 5280 5279 1 
899 5017 5018 1 
900 5017 5239 2 
901 5239 5240 1 
902 5021 5022 1 
903 5007 5008 1 
904 4995 4996 1 
905 4995 5007 2 
906 5757 5758 1 
907 5259 5260 1 
908 5987 5988 1 
909 5499 5500 1 
910 5749 5750 1 
911 5515 5516 1 
912 5511 5512 1 
913 265 266 1 
914 507 508 1 
915 13 14 1 
916 22 21 1 
917 512 22 3 
918 255 256 1 
919 499 500 1 
920 5753 5754 1 
921 247 248 1 
922 519 520 1 
923 6021 6022 1 
924 525 526 1 
925 515 516 1 
926 1275 1276 1 
927 747 748 1 
928 3 4 1 
929 3 747 2 
930 1763 1764 1 
931 771 772 1 
932 1261 1262 1 
933 1018 1017 1 
934 1274 1018 3 
935 777 778 1 
936 1027 1028 1 
937 1743 1744 1 
938 1769 1770 1 
939 1269 1270 1 
940 2255 2256 1 
941 2011 2012 1 
942 1765 1766 1 
943 2495 2496 1 
944 2294 2266 3 
945 2266 2265 1 
946 2285 2286 1 
947 2779 2780 1 
948 3251 3252 1 
949 2759 2760 1 
950 2759 3251 2 
951 2529 2530 1 
952 2281 2282 1 
953 2281 2529 2 
954 3021 3022 1 
955 3241 3242 1 
956 2767 2768 1 
957 3304 3550 3 
958 3550 3549 1 
959 3003 3004 1 
960 4025 4026 1 
961 3269 3270 1 
962 4011 4012 1 
963 4031 4032 1 
964 4047 4048 1 
965 4263 4264 1 
966 4285 4286 1 
967 4275 4276 1 
968 4272 4266 3 
969 4266 4265 1 
970 4277 4278 1 
971 4779 4780 1 
972 5036 4282 3 
973 4515 4516 1 
974 5789 5790 1 
975 5025 5026 1 
976 4773 4774 1 
977 5521 5522 1 
978 5001 5002 1 
979 5761 5762 1 
980 5261 5262 1 
981 5767 5768 1 
982 11 12 1 
983 37 38 1 
984 6041 6042 1 
985 267 268 1 
986 787 788 1 
987 547 548 1 
988 1024 1023 1 
989 268 1024 3 
990 785 786 1 
991 773 774 1 
992 1041 1042 1 
993 793 794 1 
994 1511 1512 1 
995 1055 1056 1 
996 1527 1528 1 
997 1277 1278 1 
998 1801 1802 1 
999 1031 1032 1 
1000 1533 1534 1 
1001 1771 1772 1 
1002 1291 1292 1 
1003 2283 2284 1 
1004 1537 1538 1 
1005 2293 2294 1 
1006 2763 2764 1 
1007 2023 2024 1 
1008 2539 2540 1 
1009 1783 1784 1 
1010 2519 2520 1 
1011 2531 2532 1 
1012 3008 3524 3 
1013 2790 2789 1 
1014 3524 2790 3 
1015 2263 2264 1 
1016 3267 3268 1 
1017 3026 3546 3 
1018 3026 3025 1 
1019 2798 3026 3 
1020 2798 2797 1 
1021 3546 2798 3 
1022 3546 3545 1 
1023 3523 3524 1 
1024 2768 2792 3 
1025 3535 3536 1 
1026 2792 2791 1 
1027 3531 3532 1 
1028 3515 3516 1 
1029 3783 3784 1 
1030 4026 3746 3 
1031 4046 4045 1 
1032 3789 3790 1 
1033 4269 4270 1 
1034 3797 3798 1 
1035 4029 4030 1 
1036 4533 4534 1 
1037 5035 5036 1 
1038 4291 4292 1 
1039 4785 4786 1 
1040 5023 5024 1 
1041 4763 5023 2 
1042 5029 5030 1 
1043 5011 5012 1 
1044 4775 4776 1 
1045 5549 5550 1 
1046 4777 4778 1 
1047 5275 5276 1 
1048 5776 5775 1 
1049 5286 5776 3 
1050 6011 6012 1 
1051 5777 5778 1 
1052 6047 6048 1 
1053 5787 5788 1 
1054 5787 6045 2 
1055 32 262 3 
1056 262 261 1 
1057 6033 6034 1 
1058 6045 6046 1 
1059 293 294 1 
1060 797 798 1 
1061 49 50 1 
1062 301 302 1 
1063 528 527 1 
1064 548 528 3 
1065 517 518 1 
1066 47 48 1 
1067 47 517 2 
1068 775 776 1 
1069 1307 1308 1 
1070 2041 2042 1 
1071 1309 1310 1 
1072 1772 1282 3 
1073 2032 2031 1 
1074 1555 1556 1 
1075 1548 1547 1 
1076 1548 2032 3 
1077 1285 1286 1 
1078 1754 1548 3 
1079 1539 1540 1 
1080 2541 2542 1 
1081 2049 2050 1 
1082 1753 2027 2 
1083 1753 1754 1 
1084 2027 2028 1 
1085 2055 2056 1 
1086 2035 2036 1 
1087 1797 1798 1 
1088 2297 2298 1 
1089 2313 2314 1 
1090 3019 3020 1 
1091 2781 2782 1 
1092 2775 2776 1 
1093 3291 3292 1 
1094 2784 2783 1 
1095 3047 3048 1 
1096 3279 3280 1 
1097 3289 3290 1 
1098 3031 3032 1 
1099 3281 3282 1 
1100 3521 3522 1 
1101 2787 2788 1 
1102 3319 3320 1 
1103 3781 3782 1 
1104 4028 4046 3 
1105 3795 3796 1 
1106 4039 4040 1 
1107 3539 3540 1 
1108 4041 4042 1 
1109 4051 4052 1 
1110 4793 4794 1 
1111 4299 4300 1 
1112 4287 4288 1 
1113 4535 4536 1 
1114 4525 4526 1 
1115 4764 4550 3 
1116 4764 4763 1 
1117 4550 4532 3 
1118 4550 4549 1 
1119 4532 4764 3 
1120 4532 4531 1 
1121 4293 4294 1 
1122 4789 4790 1 
1123 4809 4810 1 
1124 4555 4556 1 
1125 4527 4528 1 
1126 4295 4296 1 
1127 5037 5038 1 
1128 5277 5278 1 
1129 5277 5283 2 
1130 4511 4512 1 
1131 5043 5044 1 
1132 5043 5317 2 
1133 5317 5318 1 
1134 4781 4782 1 
1135 4781 5529 2 
1136 5293 5294 1 
1137 5570 5569 1 
1138 5310 5570 3 
1139 5535 5536 1 
1140 5529 5530 1 
1141 5759 5760 1 
1142 5799 5800 1 
1143 5531 5532 1 
1144 6029 6030 1 
1145 5791 5792 1 
1146 53 54 1 
1147 67 68 1 
1148 65 66 1 
1149 555 556 1 
1150 796 800 3 
1151 800 799 1 
1152 805 806 1 
1153 1570 1532 3 
1154 1570 1569 1 
1155 1532 1554 3 
1156 1532 1531 1 
1157 1063 1064 1 
1158 801 802 1 
1159 1554 1570 3 
1160 1554 1553 1 
1161 1795 1796 1 
1162 1795 2053 2 
1163 1791 1792 1 
1164 1059 1060 1 
1165 1817 1818 1 
1166 2053 2054 1 
1167 1549 1550 1 
1168 2069 2070 1 
1169 2045 2046 1 
1170 2587 2588 1 
1171 2303 2304 1 
1172 2287 2288 1 
1173 2059 2060 1 
1174 2059 2287 2 
1175 2543 2544 1 
1176 2553 2554 1 
1177 2793 2794 1 
1178 3309 3310 1 
1179 3049 3050 1 
1180 3065 3066 1 
1181 3293 3294 1 
1182 3557 3558 1 
1183 3299 3300 1 
1184 3057 3058 1 
1185 3051 3052 1 
1186 4061 4062 1 
1187 3559 3560 1 
1188 3053 3559 2 
1189 3553 3554 1 
1190 2803 2804 1 
1191 2803 3039 2 
1192 3804 3803 1 
1193 3775 3776 1 
1194 3793 3794 1 
1195 4317 4318 1 
1196 2795 2796 1 
1197 3785 3786 1 
1198 3568 4058 3 
1199 4049 4050 1 
1200 4815 4816 1 
1201 4085 4086 1 
1202 4305 4306 1 
1203 4541 4542 1 
1204 4053 4054 1 
1205 4537 4538 1 
1206 4803 4804 1 
1207 5311 5312 1 
1208 5057 5058 1 
1209 4813 4814 1 
1210 4303 4304 1 
1211 5314 5313 1 
1212 5040 5314 3 
1213 5555 5556 1 
1214 5319 5320 1 
1215 5815 5816 1 
1216 5565 5566 1 
1217 5551 5552 1 
1218 5781 5782 1 
1219 6067 6068 1 
1220 5813 5814 1 
1221 5803 5804 1 
1222 69 70 1 
1223 291 292 1 
1224 79 80 1 
1225 307 308 1 
1226 66 60 3 
1227 83 84 1 
1228 83 307 2 
1229 60 59 1 
1230 543 544 1 
1231 559 560 1 
1232 299 300 1 
1233 567 568 1 
1234 41 42 1 
1235 1065 1066 1 
1236 571 572 1 
1237 565 566 1 
1238 1316 1294 3 
1239 1294 1293 1 
1240 1313 1314 1 
1241 2061 2062 1 
1242 1561 1562 1 
1243 1813 1814 1 
1244 1305 1306 1 
1245 1829 1830 1 
1246 1311 1312 1 
1247 1551 1552 1 
1248 1793 1794 1 
1249 1815 1816 1 
1250 1815 1829 2 
1251 1827 1828 1 
1252 2817 2818 1 
1253 2051 2052 1 
1254 2051 2315 2 
1255 2563 2564 1 
1256 2563 2817 2 
1257 2315 2316 1 
1258 2831 2832 1 
1259 2569 2570 1 
1260 2327 2328 1 
1261 2811 2812 1 
1262 2573 2574 1 
1263 2821 2822 1 
1264 2821 3317 2 
1265 3329 3330 1 
1266 2839 3329 2 
1267 3305 3306 1 
1268 3829 3830 1 
1269 3297 3298 1 
1270 4075 4076 1 
1271 4059 4060 1 
1272 3815 3816 1 
1273 3567 3568 1 
1274 4058 4057 1 
1275 4063 4064 1 
1276 5049 5050 1 
1277 4077 4078 1 
1278 4069 4070 1 
1279 4319 4320 1 
1280 4587 4588 1 
1281 4811 4812 1 
1282 4797 4798 1 
1283 4797 5055 2 
1284 5337 5338 1 
1285 4559 4560 1 
1286 4559 4561 2 
1287 5069 5070 1 
1288 4561 4562 1 
1289 5065 5066 1 
1290 5553 5554 1 
1291 4567 4568 1 
1292 5581 5582 1 
1293 4583 4584 1 
1294 5329 5330 1 
1295 5819 5820 1 
1296 5321 5322 1 
1297 5825 5826 1 
1298 5825 6063 2 
1299 43 44 1 
1300 5579 5580 1 
1301 5821 5822 1 
1302 6063 6064 1 
1303 6027 6028 1 
1304 57 58 1 
1305 564 563 1 
1306 819 820 1 
1307 835 836 1 
1308 355 356 1 
1309 337 338 1 
1310 337 355 2 
1311 1076 1075 1 
1312 813 814 1 
1313 826 1076 3 
1314 1564 1563 1 
1315 1070 1564 3 
1316 1061 1062 1 
1317 1559 1560 1 
1318 1069 1070 1 
1319 1567 1568 1 
1320 1089 1090 1 
1321 2291 2292 1 
1322 2291 2353 2 
1323 2353 2354 1 
1324 2319 2320 1 
1325 2815 2816 1 
1326 2593 2594 1 
1327 2097 2098 1 
1328 2323 2324 1 
1329 2559 2560 1 
1330 2559 2835 2 
1331 2835 2836 1 
1332 2089 2090 1 
1333 3037 3038 1 
1334 3037 3095 2 
1335 3095 3096 1 
1336 2087 2088 1 
1337 2562 3086 3 
1338 2562 2561 1 
1339 2567 2568 1 
1340 3061 3062 1 
1341 3086 2844 3 
1342 3086 3085 1 
1343 2844 2562 3 
1344 2844 2843 1 
1345 3067 3068 1 
1346 2840 2839 1 
1347 3585 3586 1 
1348 3570 2840 3 
1349 3563 3564 1 
1350 3587 3588 1 
1351 3561 3562 1 
1352 3093 3094 1 
1353 3075 3076 1 
1354 3801 3802 1 
1355 3583 3584 1 
1356 3583 3599 2 
1357 3811 3812 1 
1358 3827 3828 1 
1359 4827 4828 1 
1360 4329 4330 1 
1361 4329 4827 2 
1362 4341 4342 1 
1363 5307 5308 1 
1364 4569 4570 1 
1365 4832 5088 3 
1366 4808 5056 3 
1367 4823 4824 1 
1368 4563 4564 1 
1369 5088 5087 1 
1370 4835 4836 1 
1371 5075 5076 1 
1372 4829 4830 1 
1373 4799 4800 1 
1374 4799 5099 2 
1375 5325 5326 1 
1376 5099 5100 1 
1377 5571 5572 1 
1378 6083 6084 1 
1379 303 304 1 
1380 6081 6082 1 
1381 5827 5828 1 
1382 6079 6080 1 
1383 87 88 1 
1384 347 348 1 
1385 341 342 1 
1386 359 360 1 
1387 335 336 1 
1388 351 352 1 
1389 597 598 1 
1390 575 576 1 
1391 89 90 1 
1392 855 856 1 
1393 821 822 1 
1394 1107 1108 1 
1395 1337 1338 1 
1396 1583 1584 1 
1397 1087 1088 1 
1398 825 826 1 
1399 829 830 1 
1400 833 834 1 
1401 1079 1080 1 
1402 1085 1086 1 
1403 1097 1098 1 
1404 1587 1588 1 
1405 853 854 1 
1406 853 1859 2 
1407 1859 1860 1 
1408 847 848 1 
1409 1585 1586 1 
1410 1317 1318 1 
1411 1367 1368 1 
1412 1573 1574 1 
1413 1081 1082 1 
1414 1581 1582 1 
1415 1335 1336 1 
1416 2073 2074 1 
1417 1845 1846 1 
1418 1833 1834 1 
1419 1819 1820 1 
1420 1819 2577 2 
1421 1579 1580 1 
1422 2599 2600 1 
1423 2109 2110 1 
1424 2851 2852 1 
1425 2575 2576 1 
1426 2858 2857 1 
1427 2813 2814 1 
1428 2592 2858 3 
1429 3603 3604 1 
1430 3604 2828 3 
1431 2828 2827 1 
1432 2841 2842 1 
1433 3813 3814 1 
1434 3607 3608 1 
1435 3607 3813 2 
1436 2834 3354 3 
1437 3354 3353 1 
1438 3077 3078 1 
1439 3077 3359 2 
1440 3595 3596 1 
1441 3091 3092 1 
1442 3337 3338 1 
1443 3359 3360 1 
1444 3605 3606 1 
1445 4311 4312 1 
1446 3579 3580 1 
1447 3579 3821 2 
1448 3821 3822 1 
1449 3599 3600 1 
1450 4089 4090 1 
1451 3597 3598 1 
1452 4351 4352 1 
1453 4328 4327 1 
1454 3828 4328 3 
1455 4101 4102 1 
1456 4323 4324 1 
1457 3845 3846 1 
1458 4589 4590 1 
1459 4849 4850 1 
1460 4575 4576 1 
1461 4821 4822 1 
1462 4833 4834 1 
1463 4345 4346 1 
1464 4601 4602 1 
1465 4839 4840 1 
1466 4825 4826 1 
1467 4831 4832 1 
1468 5575 5576 1 
1469 5357 5358 1 
1470 5349 5350 1 
1471 5077 5078 1 
1472 5587 5588 1 
1473 5323 5324 1 
1474 5831 5832 1 
1475 5585 5586 1 
1476 5585 5831 2 
1477 5105 5106 1 
1478 6087 6088 1 
1479 73 74 1 
1480 5583 5584 1 
1481 5833 5834 1 
1482 5833 5851 2 
1483 5609 5610 1 
1484 353 354 1 
1485 340 6098 3 
1486 5859 5860 1 
1487 6073 6074 1 
1488 593 594 1 
1489 5856 6102 3 
1490 6093 6094 1 
1491 325 326 1 
1492 6117 6118 1 
1493 97 98 1 
1494 592 350 3 
1495 592 591 1 
1496 601 602 1 
1497 344 592 3 
1498 344 343 1 
1499 350 344 3 
1500 350 349 1 
1501 1123 1124 1 
1502 119 120 1 
1503 6105 6106 1 
1504 845 846 1 
1505 857 858 1 
1506 851 852 1 
1507 843 844 1 
1508 1325 1326 1 
1509 1115 1116 1 
1510 1111 1112 1 
1511 1361 1362 1 
1512 1601 1602 1 
1513 1591 1592 1 
1514 1607 1608 1 
1515 1343 1344 1 
1516 1847 1848 1 
1517 2105 2106 1 
1518 1811 1812 1 
1519 2367 2368 1 
1520 2343 2344 1 
1521 1843 1844 1 
1522 3073 3074 1 
1523 2357 2358 1 
1524 2607 2608 1 
1525 3339 3340 1 
1526 2829 2830 1 
1527 2321 2322 1 
1528 2321 2857 2 
1529 2596 2595 1 
1530 3361 3362 1 
1531 2611 2612 1 
1532 2611 3083 2 
1533 3087 3088 1 
1534 3083 3084 1 
1535 2833 2834 1 
1536 3089 3090 1 
1537 3347 3348 1 
1538 3346 2590 3 
1539 3346 3345 1 
1540 3336 3346 3 
1541 3336 3335 1 
1542 2590 3336 3 
1543 2590 2589 1 
1544 3841 3842 1 
1545 3101 3102 1 
1546 3843 3844 1 
1547 4365 4366 1 
1548 4087 4088 1 
1549 4087 4093 2 
1550 4083 4084 1 
1551 4337 4338 1 
1552 4093 4094 1 
1553 4603 4604 1 
1554 4853 4854 1 
1555 4355 4356 1 
1556 4355 4603 2 
1557 4875 4876 1 
1558 4617 4618 1 
1559 5103 5104 1 
1560 4339 4340 1 
1561 4843 4844 1 
1562 5101 5102 1 
1563 5347 5348 1 
1564 5591 5592 1 
1565 5851 5852 1 
1566 5855 5856 1 
1567 6102 6101 1 
1568 5597 5598 1 
1569 5849 5850 1 
1570 361 362 1 
1571 6125 6126 1 
1572 115 116 1 
1573 5863 5864 1 
1574 603 604 1 
1575 615 616 1 
1576 363 364 1 
1577 599 600 1 
1578 616 864 3 
1579 864 863 1 
1580 1355 1356 1 
1581 871 872 1 
1582 871 881 2 
1583 1637 1638 1 
1584 1101 1102 1 
1585 1101 1637 2 
1586 1347 1348 1 
1587 1369 1370 1 
1588 1851 1852 1 
1589 1856 1366 3 
1590 869 870 1 
1591 869 1365 2 
1592 1597 1598 1 
1593 2099 2100 1 
1594 1625 1626 1 
1595 1595 1596 1 
1596 1863 1864 1 
1597 2370 2356 3 
1598 2356 2355 1 
1599 2613 2614 1 
1600 2369 2370 1 
1601 2345 2346 1 
1602 2605 2606 1 
1603 2617 2618 1 
1604 2618 2596 3 
1605 2645 2646 1 
1606 3365 3366 1 
1607 3619 3620 1 
1608 3625 3626 1 
1609 3857 3858 1 
1610 3861 3862 1 
1611 4109 4110 1 
1612 3611 3612 1 
1613 4369 4370 1 
1614 4381 4382 1 
1615 4349 4350 1 
1616 4619 4620 1 
1617 4621 4622 1 
1618 4842 4841 1 
1619 4385 4386 1 
1620 4608 4842 3 
1621 4593 4594 1 
1622 4595 4596 1 
1623 4379 4380 1 
1624 4367 4368 1 
1625 4861 4862 1 
1626 5363 5364 1 
1627 5862 5874 3 
1628 5874 5873 1 
1629 5853 5854 1 
1630 5601 5602 1 
1631 105 106 1 
1632 5115 5116 1 
1633 5613 5614 1 
1634 5111 5112 1 
1635 6139 6140 1 
1636 611 612 1 
1637 123 124 1 
1638 625 626 1 
1639 389 390 1 
1640 379 380 1 
1641 619 620 1 
1642 613 614 1 
1643 867 868 1 
1644 1356 1106 3 
1645 1106 1105 1 
1646 365 366 1 
1647 633 634 1 
1648 879 880 1 
1649 1139 1140 1 
1650 882 881 1 
1651 1133 1134 1 
1652 1390 882 3 
1653 1366 1365 1 
1654 1121 1122 1 
1655 1873 1874 1 
1656 1865 1866 1 
1657 1611 1612 1 
1658 1869 1870 1 
1659 2123 2124 1 
1660 2362 1642 3 
1661 1391 1392 1 
1662 1363 1364 1 
1663 2361 2362 1 
1664 1629 1630 1 
1665 3103 3104 1 
1666 2875 2876 1 
1667 2371 2372 1 
1668 3131 3132 1 
1669 3109 3110 1 
1670 3126 3634 3 
1671 3634 3633 1 
1672 2885 2886 1 
1673 2881 2882 1 
1674 3363 3364 1 
1675 3609 3610 1 
1676 3369 3370 1 
1677 3379 3380 1 
1678 4103 4104 1 
1679 4103 4115 2 
1680 4115 4116 1 
1681 3871 3872 1 
1682 4126 4125 1 
1683 4382 4126 3 
1684 3873 3874 1 
1685 3873 4363 2 
1686 4363 4364 1 
1687 4847 4848 1 
1688 3869 3870 1 
1689 4615 4616 1 
1690 4871 4872 1 
1691 4851 4852 1 
1692 4627 4628 1 
1693 4361 4362 1 
1694 4629 4630 1 
1695 4371 4372 1 
1696 4881 4882 1 
1697 5353 5354 1 
1698 5369 5370 1 
1699 5121 5122 1 
1700 5137 5138 1 
1701 5137 5379 2 
1702 5379 5380 1 
1703 5623 5624 1 
1704 5361 5362 1 
1705 5869 5870 1 
1706 5616 5615 1 
1707 5341 5342 1 
1708 5645 5646 1 
1709 6145 6146 1 
1710 6131 6132 1 
1711 6127 6128 1 
1712 153 154 1 
1713 6133 6134 1 
1714 371 372 1 
1715 6113 6114 1 
1716 139 140 1 
1717 6123 6124 1 
1718 393 394 1 
1719 647 648 1 
1720 375 376 1 
1721 629 630 1 
1722 395 396 1 
1723 889 890 1 
1724 889 1371 2 
1725 1371 1372 1 
1726 1379 1380 1 
1727 1134 1136 3 
1728 1137 1138 1 
1729 1389 1390 1 
1730 1403 1404 1 
1731 1385 1386 1 
1732 1642 1641 1 
1733 2121 2122 1 
1734 2121 2375 2 
1735 2375 2376 1 
1736 1651 1652 1 
1737 2129 2130 1 
1738 1641 2395 2 
1739 2117 2118 1 
1740 2395 2396 1 
1741 2887 2888 1 
1742 2383 2384 1 
1743 3133 3134 1 
1744 2629 2630 1 
1745 2377 2378 1 
1746 2377 2629 2 
1747 2635 2636 1 
1748 3141 3142 1 
1749 3121 3122 1 
1750 3139 3140 1 