ITEM: TIMESTEP
16720
ITEM: NUMBER OF ENTRIES
4351
ITEM: BOX BOUNDS pp pp ff
0.0000000000000000e+00 7.2168784000000002e+01
0.0000000000000000e+00 7.2168784000000002e+01
0.0000000000000000e+00 1.2000000000000000e+01
ITEM: ENTRIES index c_1[1] c_1[2] c_1[3]
1 6010 6242 3 
2 6242 6241 1 
3 253 254 1 
4 512 22 3 
5 763 764 1 
6 506 234 3 
7 234 233 1 
8 1241 1242 1 
9 525 526 1 
10 1501 1502 1 
11 1761 1762 1 
12 1011 1012 1 
13 1279 1280 1 
14 1525 1526 1 
15 2255 2256 1 
16 2271 2272 1 
17 1503 1504 1 
18 2732 2252 3 
19 2252 2251 1 
20 2961 2962 1 
21 2731 2732 1 
22 2247 2248 1 
23 2521 2522 1 
24 2997 2998 1 
25 2983 2984 1 
26 2983 2997 2 
27 3512 3526 3 
28 3526 3525 1 
29 4011 4012 1 
30 3511 3512 1 
31 4257 4258 1 
32 3253 3254 1 
33 4007 4008 1 
34 3721 3722 1 
35 4499 4500 1 
36 4275 4276 1 
37 4521 4522 1 
38 4741 4742 1 
39 4515 4741 2 
40 4515 4516 1 
41 4757 4758 1 
42 4755 4756 1 
43 5502 5501 1 
44 5014 5502 3 
45 6224 6008 3 
46 6223 6224 1 
47 257 258 1 
48 257 6241 2 
49 6001 6002 1 
50 507 508 1 
51 22 21 1 
52 5765 5766 1 
53 5765 6013 2 
54 248 34 3 
55 248 247 1 
56 12 248 3 
57 12 11 1 
58 6013 6014 1 
59 34 12 3 
60 34 33 1 
61 17 18 1 
62 501 502 1 
63 251 252 1 
64 270 522 3 
65 270 768 3 
66 270 526 3 
67 768 1022 3 
68 522 521 1 
69 522 768 3 
70 526 522 3 
71 526 1022 3 
72 515 516 1 
73 233 269 2 
74 1001 1002 1 
75 271 272 1 
76 1043 1044 1 
77 1020 1019 1 
78 1002 1020 3 
79 1031 1032 1 
80 2020 1780 3 
81 2020 2019 1 
82 1273 1274 1 
83 1034 2020 3 
84 1034 1033 1 
85 1780 1034 3 
86 1780 1779 1 
87 1515 1516 1 
88 1995 1996 1 
89 2535 2536 1 
90 2992 2778 3 
91 2992 2991 1 
92 2992 3002 3 
93 3006 2992 3 
94 3006 3005 1 
95 2531 2532 1 
96 3002 2778 3 
97 3002 3001 1 
98 3002 3006 3 
99 2778 3006 3 
100 2778 2777 1 
101 2530 2529 1 
102 2772 2530 3 
103 3503 3504 1 
104 3303 3304 1 
105 3495 3496 1 
106 3013 3014 1 
107 3015 3016 1 
108 3281 3282 1 
109 3797 3798 1 
110 4048 4047 1 
111 4276 4048 3 
112 4282 4281 1 
113 5036 4282 3 
114 5521 5522 1 
115 5281 5282 1 
116 5281 5521 2 
117 6231 6232 1 
118 6031 6032 1 
119 5015 5016 1 
120 511 512 1 
121 511 21 2 
122 247 5753 2 
123 524 6036 3 
124 541 542 1 
125 11 6051 2 
126 785 786 1 
127 531 532 1 
128 261 531 2 
129 1067 1068 1 
130 767 768 1 
131 777 778 1 
132 1053 1054 1 
133 1521 1522 1 
134 1283 1284 1 
135 1283 1521 2 
136 2297 2298 1 
137 3041 3042 1 
138 2281 2529 2 
139 2281 2282 1 
140 3290 2784 3 
141 2784 2783 1 
142 3311 3312 1 
143 3311 3547 2 
144 4039 4040 1 
145 3789 3790 1 
146 5035 5036 1 
147 4291 4292 1 
148 5525 5526 1 
149 6051 6052 1 
150 5773 5774 1 
151 6036 6035 1 
152 31 32 1 
153 537 538 1 
154 523 524 1 
155 1057 1058 1 
156 321 322 1 
157 773 774 1 
158 547 1025 2 
159 1025 1026 1 
160 539 540 1 
161 1527 1528 1 
162 2061 2062 1 
163 2571 2572 1 
164 3292 3291 1 
165 2551 2552 1 
166 3310 3292 3 
167 2263 2264 1 
168 3048 3548 3 
169 3548 3547 1 
170 3047 3048 1 
171 3534 2524 3 
172 3534 3533 1 
173 3515 3516 1 
174 3804 3803 1 
175 4302 5292 3 
176 5292 5291 1 
177 4301 4302 1 
178 4527 4528 1 
179 4803 4804 1 
180 5823 5824 1 
181 5801 5802 1 
182 5797 5798 1 
183 5532 5531 1 
184 5319 5320 1 
185 6029 6030 1 
186 5787 5788 1 
187 5787 6045 2 
188 35 6035 2 
189 6045 6046 1 
190 293 294 1 
191 52 51 1 
192 322 6044 3 
193 6044 6043 1 
194 69 70 1 
195 551 1323 2 
196 796 800 3 
197 815 816 1 
198 800 799 1 
199 827 828 1 
200 1295 1296 1 
201 295 296 1 
202 1041 1042 1 
203 1791 1792 1 
204 1289 1290 1 
205 1571 1572 1 
206 1781 1782 1 
207 1333 1334 1 
208 1541 1542 1 
209 1823 1824 1 
210 2043 2044 1 
211 2331 2332 1 
212 2519 2520 1 
213 3279 3280 1 
214 3317 3318 1 
215 2821 2822 1 
216 2821 3317 2 
217 3051 3052 1 
218 3283 3284 1 
219 3036 3035 1 
220 3305 3306 1 
221 4325 4326 1 
222 4815 4816 1 
223 3573 3574 1 
224 4287 4288 1 
225 4767 4768 1 
226 4315 4316 1 
227 4303 4304 1 
228 4804 5296 3 
229 5296 5295 1 
230 5320 5532 3 
231 5813 5814 1 
232 5786 5812 3 
233 5812 5811 1 
234 5558 5557 1 
235 5785 5786 1 
236 63 5557 2 
237 6061 6062 1 
238 291 292 1 
239 6054 5806 3 
240 323 324 1 
241 6064 52 3 
242 6053 6054 1 
243 41 42 1 
244 589 590 1 
245 1323 1324 1 
246 571 572 1 
247 825 826 1 
248 1071 1072 1 
249 1339 1340 1 
250 1073 1339 2 
251 1073 1074 1 
252 2541 2542 1 
253 2291 2292 1 
254 2291 2353 2 
255 2824 3038 3 
256 2823 2824 1 
257 2327 2328 1 
258 3565 3566 1 
259 3301 3302 1 
260 3581 3582 1 
261 3322 3321 1 
262 3582 3322 3 
263 3558 3557 1 
264 4066 3558 3 
265 3791 3792 1 
266 3589 3590 1 
267 3567 3568 1 
268 3801 3802 1 
269 4063 4064 1 
270 3568 4058 3 
271 4309 4310 1 
272 4309 4543 2 
273 4543 4544 1 
274 4297 4298 1 
275 5049 5050 1 
276 5333 5334 1 
277 4573 4574 1 
278 5563 5564 1 
279 5563 5811 2 
280 5302 5301 1 
281 5814 5302 3 
282 6071 6072 1 
283 6063 6064 1 
284 561 562 1 
285 75 76 1 
286 327 328 1 
287 821 822 1 
288 826 1076 3 
289 1564 1563 1 
290 1074 1832 3 
291 847 848 1 
292 1574 1586 3 
293 1813 1814 1 
294 1561 1562 1 
295 2077 2078 1 
296 1821 1822 1 
297 2063 2064 1 
298 2831 2832 1 
299 2581 2582 1 
300 3038 3037 1 
301 3552 3072 3 
302 3072 3071 1 
303 3823 3824 1 
304 4065 4066 1 
305 4571 4572 1 
306 4059 4060 1 
307 4075 4076 1 
308 4311 4312 1 
309 4072 4322 3 
310 4072 4071 1 
311 3572 4072 3 
312 3572 3571 1 
313 4322 3572 3 
314 4322 4321 1 
315 4323 4324 1 
316 4825 4826 1 
317 4559 4560 1 
318 4559 4561 2 
319 4561 4562 1 
320 5085 5086 1 
321 5326 4800 3 
322 5561 5562 1 
323 4339 4340 1 
324 6083 6084 1 
325 6103 6104 1 
326 6087 6088 1 
327 61 62 1 
328 6089 6090 1 
329 343 831 2 
330 831 832 1 
331 335 336 1 
332 823 824 1 
333 855 856 1 
334 81 82 1 
335 81 563 2 
336 811 812 1 
337 1338 1337 1 
338 812 1338 3 
339 1061 1062 1 
340 1832 1831 1 
341 1565 1566 1 
342 833 834 1 
343 2559 2560 1 
344 2559 2835 2 
345 2585 2586 1 
346 2109 2110 1 
347 2349 2350 1 
348 2349 2585 2 
349 2335 2336 1 
350 2087 2088 1 
351 2859 2860 1 
352 3351 3352 1 
353 3341 3342 1 
354 3088 2842 3 
355 3092 3091 1 
356 3864 3092 3 
357 3595 3596 1 
358 3853 3854 1 
359 3825 3826 1 
360 3825 3853 2 
361 3821 3822 1 
362 3579 3580 1 
363 3579 3821 2 
364 3859 3860 1 
365 3593 3594 1 
366 4105 4106 1 
367 4328 4327 1 
368 4569 4570 1 
369 4875 4876 1 
370 5345 5346 1 
371 4581 4582 1 
372 5079 5080 1 
373 5079 5345 2 
374 5081 5082 1 
375 5098 4836 3 
376 5325 5326 1 
377 5097 5098 1 
378 5097 5593 2 
379 92 91 1 
380 6104 92 3 
381 5591 5592 1 
382 6086 6085 1 
383 6073 6074 1 
384 6079 6080 1 
385 861 862 1 
386 596 1092 3 
387 1092 1091 1 
388 595 596 1 
389 595 1107 2 
390 1107 1108 1 
391 1351 1352 1 
392 1858 2616 3 
393 2616 2615 1 
394 2341 2342 1 
395 2342 2864 3 
396 2864 2863 1 
397 2894 2864 3 
398 2845 2846 1 
399 2845 2863 2 
400 3087 3088 1 
401 3813 3814 1 
402 3607 3608 1 
403 3607 3813 2 
404 3091 3335 2 
405 4365 4366 1 
406 3123 3124 1 
407 3619 3620 1 
408 3851 3852 1 
409 4081 4082 1 
410 4603 4604 1 
411 4355 4603 2 
412 4355 4356 1 
413 5347 5348 1 
414 5637 5638 1 
415 5599 5600 1 
416 102 6086 3 
417 5856 6102 3 
418 6109 6110 1 
419 5841 5842 1 
420 333 334 1 
421 857 858 1 
422 1349 1350 1 
423 1091 1103 2 
424 1347 1348 1 
425 1103 1104 1 
426 1851 1852 1 
427 2105 2106 1 
428 1605 1606 1 
429 2091 2092 1 
430 2875 2876 1 
431 2363 2364 1 
432 2893 2894 1 
433 2101 2102 1 
434 2101 2893 2 
435 2357 2358 1 
436 3111 3112 1 
437 3105 3106 1 
438 3124 3884 3 
439 3884 3883 1 
440 3861 3862 1 
441 5103 5104 1 
442 4371 4372 1 
443 106 5862 3 
444 106 105 1 
445 5862 5874 3 
446 5862 5861 1 
447 5874 106 3 
448 5874 5873 1 
449 5112 106 3 
450 5112 5111 1 
451 5112 5874 3 
452 5112 5862 3 
453 5611 5612 1 
454 5375 5376 1 
455 5597 5598 1 
456 5881 5882 1 
457 114 113 1 
458 325 326 1 
459 325 6101 2 
460 6110 114 3 
461 361 362 1 
462 877 878 1 
463 123 124 1 
464 653 654 1 
465 621 622 1 
466 1401 1402 1 
467 1853 1854 1 
468 1121 1122 1 
469 1393 1394 1 
470 1835 1836 1 
471 1835 2115 2 
472 2115 2116 1 
473 2621 2622 1 
474 2853 2854 1 
475 3643 3644 1 
476 2873 2874 1 
477 2873 3643 2 
478 2619 2620 1 
479 2619 2853 2 
480 3375 3883 2 
481 3862 3624 3 
482 3624 3623 1 
483 3371 3372 1 
484 4397 4398 1 
485 5353 5354 1 
486 4873 5353 2 
487 5877 5878 1 
488 5123 5124 1 
489 5123 5133 2 
490 5133 5134 1 
491 5635 5636 1 
492 5601 5602 1 
493 5361 5362 1 
494 5351 5352 1 
495 6141 6142 1 
496 5372 5371 1 
497 5342 5372 3 
498 5871 5872 1 
499 371 372 1 
500 153 154 1 
501 121 122 1 
502 5341 5342 1 
503 6144 5616 3 
504 6121 6122 1 
505 139 140 1 
506 1379 1380 1 
507 643 644 1 
508 1609 1610 1 
509 1387 1388 1 
510 1387 1609 2 
511 1133 1134 1 
512 1136 1135 1 
513 1391 1392 1 
514 2136 2135 1 
515 2111 2112 1 
516 2128 2136 3 
517 3144 3376 3 
518 3898 2866 3 
519 3376 3375 1 
520 2866 2865 1 
521 2865 3901 2 
522 3613 3614 1 
523 5151 5152 1 
524 4629 4630 1 
525 5127 5128 1 
526 5127 5361 2 
527 5625 5626 1 
528 5631 5632 1 
529 5395 5396 1 
530 5395 5631 2 
531 6131 6132 1 
532 5616 5615 1 
533 141 142 1 
534 141 143 2 
535 143 144 1 
536 151 152 1 
537 151 641 2 
538 641 642 1 
539 1147 1148 1 
540 1149 1150 1 
541 902 901 1 
542 1143 1144 1 
543 1883 1884 1 
544 1643 1644 1 
545 2129 2130 1 
546 1631 1632 1 
547 1385 1386 1 
548 1385 1881 2 
549 2147 2148 1 
550 2895 2896 1 
551 2131 2132 1 
552 2113 2114 1 
553 2647 2648 1 
554 3667 3668 1 
555 3163 3173 2 
556 3143 3144 1 
557 2905 2906 1 
558 3900 4142 3 
559 3899 3900 1 
560 4641 4642 1 
561 4135 4136 1 
562 4633 4634 1 
563 4625 4626 1 
564 5897 6155 2 
565 5665 5666 1 
566 5383 5384 1 
567 5883 5884 1 
568 6151 6152 1 
569 397 398 1 
570 884 883 1 
571 132 902 3 
572 1151 1152 1 
573 398 884 3 
574 1395 1396 1 
575 1395 1649 2 
576 1897 1898 1 
577 1650 1649 1 
578 1662 1650 3 
579 2374 2174 3 
580 2374 2373 1 
581 2152 2374 3 
582 2152 2151 1 
583 1907 1908 1 
584 2174 2152 3 
585 2174 2173 1 
586 1882 2174 3 
587 1882 1881 1 
588 1882 2374 3 
589 1882 2152 3 
590 2141 2142 1 
591 2662 2661 1 
592 2648 2662 3 
593 2907 2908 1 
594 2899 2900 1 
595 2933 2934 1 
596 3165 3166 1 
597 3152 2654 3 
598 3666 3164 3 
599 3666 3665 1 
600 3164 3906 3 
601 3164 3163 1 
602 3153 3154 1 
603 2654 2653 1 
604 3161 3162 1 
605 3906 3666 3 
606 3906 3905 1 
607 4142 4141 1 
608 3621 3622 1 
609 3621 4421 2 
610 4421 4422 1 
611 3663 3664 1 
612 3891 3892 1 
613 3377 3378 1 
614 3378 4134 3 
615 4134 4133 1 
616 4911 4912 1 
617 4405 4406 1 
618 4196 4195 1 
619 5141 5142 1 
620 4663 4664 1 
621 5403 5404 1 
622 5663 5664 1 
623 4865 4866 1 
624 5392 5391 1 
625 112 378 3 
626 112 111 1 
627 6156 112 3 
628 6156 6155 1 
629 378 6156 3 
630 378 377 1 
631 111 5391 2 
632 6153 6154 1 
633 429 430 1 
634 161 162 1 
635 5912 5911 1 
636 422 421 1 
637 656 422 3 
638 401 402 1 
639 5901 5902 1 
640 1165 1166 1 
641 1163 1164 1 
642 2161 2162 1 
643 1415 1416 1 
644 1921 1922 1 
645 2412 1924 3 
646 2414 2184 3 
647 2414 2413 1 
648 2184 1672 3 
649 2184 2183 1 
650 1893 1894 1 
651 1672 2414 3 
652 1672 1671 1 
653 1924 1923 1 
654 2871 2872 1 
655 2871 2907 2 
656 3151 3152 1 
657 2683 2684 1 
658 2663 2664 1 
659 2663 2683 2 
660 3681 3682 1 
661 3395 3396 1 
662 4401 4402 1 
663 4157 4158 1 
664 4674 4428 3 
665 4428 4427 1 
666 3916 3678 3 
667 4403 4404 1 
668 3678 3677 1 
669 4155 4156 1 
670 4155 4643 2 
671 4643 4644 1 
672 4922 4196 3 
673 4947 4948 1 
674 5159 5160 1 
675 4415 4416 1 
676 4415 5163 2 
677 5163 5164 1 
678 5679 5680 1 
679 4413 4414 1 
680 5925 5926 1 
681 5662 5430 3 
682 5662 5942 3 
683 6168 5392 3 
684 6189 6190 1 
685 6177 6178 1 
686 6181 6182 1 
687 674 914 3 
688 673 674 1 
689 655 656 1 
690 935 936 1 
691 913 914 1 
692 921 922 1 
693 1413 1414 1 
694 1453 1454 1 
695 1933 1934 1 
696 1681 1682 1 
697 1925 1926 1 
698 1155 1156 1 
699 1155 1913 2 
700 1913 1914 1 
701 2411 2412 1 
702 1699 1700 1 
703 2431 2432 1 
704 2431 2437 2 
705 2437 2438 1 
706 2185 2186 1 
707 2185 2193 2 
708 2901 2902 1 
709 3674 3673 1 
710 3172 3674 3 
711 2917 2918 1 
712 3189 3190 1 
713 3401 3402 1 
714 3411 3412 1 
715 3411 3671 2 
716 3413 3414 1 
717 4153 4154 1 
718 4673 4674 1 
719 4691 4692 1 
720 4423 4424 1 
721 4699 4700 1 
722 5956 5955 1 
723 5444 5956 3 
724 5430 5429 1 
725 5430 5942 3 
726 5675 5676 1 
727 5443 5444 1 
728 5691 5692 1 
729 6203 6204 1 
730 173 5911 2 
731 6192 6191 1 
732 432 6192 3 
733 460 952 3 
734 460 459 1 
735 952 702 3 
736 952 951 1 
737 702 460 3 
738 702 701 1 
739 671 672 1 
740 671 921 2 
741 955 956 1 
742 936 682 3 
743 1411 1412 1 
744 1703 1704 1 
745 1949 1950 1 
746 1950 2440 3 
747 2691 2692 1 
748 3171 3172 1 
749 3475 3476 1 
750 3193 3194 1 
751 3711 3712 1 
752 3421 3422 1 
753 3421 3711 2 
754 3671 3672 1 
755 4945 4946 1 
756 4683 4684 1 
757 4683 4945 2 
758 5189 5190 1 
759 5174 5446 3 
760 5174 5173 1 
761 5186 5174 3 
762 5186 5185 1 
763 5446 5186 3 
764 5446 5445 1 
765 5415 5416 1 
766 5673 5674 1 
767 5453 5454 1 
768 5183 5184 1 
769 5183 5453 2 
770 5931 5932 1 
771 5933 5934 1 
772 423 424 1 
773 423 5933 2 
774 5918 5917 1 
775 6184 5918 3 
776 6163 6164 1 
777 705 706 1 
778 705 6191 2 
779 213 214 1 
780 471 472 1 
781 471 661 2 
782 451 452 1 
783 1444 1443 1 
784 700 1444 3 
785 662 661 1 
786 699 700 1 
787 1215 1216 1 
788 1951 1952 1 
789 1704 1172 3 
790 1665 1666 1 
791 1943 1944 1 
792 1941 1942 1 
793 2171 2172 1 
794 2451 2452 1 
795 2213 2214 1 
796 2689 2690 1 
797 3222 3456 3 
798 3443 3444 1 
799 3456 3455 1 
800 2945 2946 1 
801 3221 3222 1 
802 3975 3976 1 
803 3701 3975 2 
804 3422 3702 3 
805 3702 3701 1 
806 3423 3424 1 
807 4684 4162 3 
808 4162 4161 1 
809 4455 4456 1 
810 5191 5192 1 
811 5209 5210 1 
812 5677 5678 1 
813 5207 5208 1 
814 5421 5422 1 
815 5421 5677 2 
816 5694 5706 3 
817 5694 5693 1 
818 204 5966 3 
819 5966 5965 1 
820 6221 6222 1 
821 431 432 1 
822 221 222 1 
823 6195 6196 1 
824 481 482 1 
825 1225 1226 1 
826 224 662 3 
827 1716 1715 1 
828 1204 1716 3 
829 1717 1718 1 
830 1993 1994 1 
831 2461 2462 1 
832 1961 1962 1 
833 2701 2702 1 
834 3191 3192 1 
835 4449 4450 1 
836 3973 3974 1 
837 3961 3962 1 
838 3994 4472 3 
839 4439 4440 1 
840 4472 4471 1 
841 4963 4964 1 
842 4471 4963 2 
843 4437 4438 1 
844 4215 4216 1 
845 4215 4437 2 
846 4713 4714 1 
847 4941 4942 1 
848 5706 5962 3 
849 5706 5705 1 
850 5223 5224 1 
851 5962 5694 3 
852 5962 5961 1 
853 203 204 1 
854 483 484 1 
855 461 462 1 
856 191 192 1 
857 191 483 2 
858 480 464 3 
859 1202 1201 1 
860 740 1202 3 
861 1211 1212 1 
862 1211 1221 2 
863 1451 1452 1 
864 1221 1222 1 
865 1713 1714 1 
866 2237 2238 1 
867 1482 1978 3 
868 1482 1481 1 
869 1956 1482 3 
870 1956 1955 1 
871 1978 1956 3 
872 1978 1977 1 
873 1955 2723 2 
874 2723 2724 1 
875 2483 2484 1 
876 2973 2974 1 
877 2737 2738 1 
878 3231 3232 1 
879 4463 4464 1 
880 3737 3738 1 
881 3972 4204 3 
882 4204 4203 1 
883 3951 3952 1 
884 4225 4226 1 
885 4990 4722 3 
886 4990 4989 1 
887 4722 5222 3 
888 4722 4721 1 
889 5222 4990 3 
890 5222 5221 1 
891 4953 4954 1 
892 5714 5713 1 
893 5724 5714 3 
894 5731 5732 1 
895 245 246 1 
896 479 480 1 
897 495 496 1 
898 487 488 1 
899 739 740 1 
900 1239 1240 1 
901 1973 1974 1 
902 1476 1488 3 
903 1488 1487 1 
904 1483 1484 1 
905 997 998 1 
906 2474 2488 3 
907 2474 2473 1 
908 2488 2500 3 
909 2488 2487 1 
910 2500 2474 3 
911 2500 2499 1 
912 2242 2224 3 
913 2242 2241 1 
914 2224 2972 3 
915 2224 2223 1 
916 2972 2242 3 
917 2972 2971 1 
918 2976 3464 3 
919 3233 3234 1 
920 3209 3210 1 
921 3464 3463 1 
922 2975 2976 1 
923 3232 3964 3 
924 3483 3484 1 
925 3483 3741 2 
926 3964 3963 1 
927 3225 3226 1 
928 3225 3963 2 
929 3491 3492 1 
930 4485 4486 1 
931 4987 4988 1 
932 4223 4224 1 
933 4725 4726 1 
934 4977 4978 1 
935 5713 6005 2 
936 475 476 1 
937 243 475 2 
938 6005 6006 1 
939 235 236 1 
940 6009 6010 1 
941 244 243 1 
942 6002 244 3 
943 6017 6018 1 
944 485 1239 2 
945 486 485 1 
946 1475 1476 1 
947 1755 1756 1 
948 1485 1486 1 
949 1251 1252 1 
950 2245 2246 1 
951 1233 1234 1 
952 2761 2762 1 
953 2743 2744 1 
954 3481 3482 1 
955 3467 3468 1 
956 4021 4022 1 
957 3493 4021 2 
958 3757 3758 1 
959 3761 3762 1 
960 3501 3502 1 
961 4247 4248 1 
962 4724 4723 1 
963 4758 4724 3 
964 4735 4736 1 
965 4493 4494 1 
966 4493 4735 2 
967 5471 5472 1 
968 5733 5734 1 
969 5249 5250 1 
970 5249 5481 2 
971 6233 6234 1 
972 5013 5014 1 
973 6008 6007 1 
974 5741 5742 1 
975 5973 5974 1 
976 13 14 1 
977 529 530 1 
978 1003 1004 1 
979 45 46 1 
980 25 26 1 
981 505 506 1 
982 310 309 1 
983 473 474 1 
984 1005 1006 1 
985 1039 1040 1 
986 1014 1256 3 
987 1256 1255 1 
988 753 754 1 
989 1243 1244 1 
990 757 758 1 
991 1013 1014 1 
992 1007 1008 1 
993 1265 1266 1 
994 1509 1510 1 
995 1785 1786 1 
996 2225 2226 1 
997 2741 2742 1 
998 1757 1758 1 
999 1765 1766 1 
1000 2011 2012 1 
1001 2029 2003 2 
1002 2016 2004 3 
1003 2016 2015 1 
1004 2016 2030 3 
1005 1514 2004 3 
1006 1514 1513 1 
1007 1514 2016 3 
1008 2004 2030 3 
1009 2004 2003 1 
1010 2495 2496 1 
1011 2030 1514 3 
1012 2030 2029 1 
1013 2018 2276 3 
1014 2018 2017 1 
1015 2471 2472 1 
1016 2503 2504 1 
1017 3255 3256 1 
1018 2508 2018 3 
1019 2508 2507 1 
1020 2276 2508 3 
1021 2276 2275 1 
1022 2276 2754 3 
1023 2279 2509 2 
1024 2785 2786 1 
1025 2481 2482 1 
1026 2981 2982 1 
1027 2509 2510 1 
1028 2513 2514 1 
1029 3011 3012 1 
1030 3010 3986 3 
1031 3010 3009 1 
1032 2259 3011 2 
1033 2995 2996 1 
1034 3277 3278 1 
1035 3986 3510 3 
1036 3986 3985 1 
1037 3517 3518 1 
1038 3755 3756 1 
1039 3530 3754 3 
1040 3030 3029 1 
1041 3756 3030 3 
1042 4009 4010 1 
1043 3767 3768 1 
1044 3759 3760 1 
1045 3759 3767 2 
1046 3003 3004 1 
1047 4012 3770 3 
1048 3770 3769 1 
1049 3744 4744 3 
1050 3744 3743 1 
1051 4984 4254 3 
1052 4231 4232 1 
1053 4744 3766 3 
1054 4744 4743 1 
1055 3766 3744 3 
1056 3766 3765 1 
1057 4263 4264 1 
1058 3773 3774 1 
1059 4497 4498 1 
1060 4289 4290 1 
1061 4289 4497 2 
1062 4752 4751 1 
1063 5790 4752 3 
1064 5503 5504 1 
1065 5505 5506 1 
1066 4753 4754 1 
1067 4753 5533 2 
1068 5533 5534 1 
1069 5017 5018 1 
1070 5017 5239 2 
1071 5239 5240 1 
1072 5758 5020 3 
1073 5758 5757 1 
1074 5020 5276 3 
1075 5020 5019 1 
1076 5276 5758 3 
1077 5276 5275 1 
1078 5267 5268 1 
1079 5539 5540 1 
1080 5511 5512 1 
1081 229 230 1 
1082 5497 5498 1 
1083 5256 5255 1 
1084 5518 5754 3 
1085 5754 5753 1 
1086 489 490 1 
1087 239 240 1 
1088 273 274 1 
1089 273 541 2 
1090 23 24 1 
1091 9 10 1 
1092 513 514 1 
1093 269 270 1 
1094 283 284 1 
1095 1021 1022 1 
1096 1274 1018 3 
1097 1018 1017 1 
1098 1028 1776 3 
1099 1776 1775 1 
1100 1533 1534 1 
1101 1763 1764 1 
1102 1743 1744 1 
1103 1027 1028 1 
1104 1769 1770 1 
1105 2283 2284 1 
1106 1770 1270 3 
1107 2294 2266 3 
1108 2266 2265 1 
1109 1519 1520 1 
1110 1519 2275 2 
1111 2773 2774 1 
1112 2759 2760 1 
1113 2759 3251 2 
1114 2765 2766 1 
1115 2511 2512 1 
1116 2511 2767 2 
1117 2771 2772 1 
1118 2262 2261 1 
1119 2262 3262 3 
1120 2517 2518 1 
1121 3788 3787 1 
1122 3788 2262 3 
1123 2767 2768 1 
1124 3267 3268 1 
1125 3257 3258 1 
1126 3262 3788 3 
1127 3510 3010 3 
1128 3510 3509 1 
1129 3271 3272 1 
1130 3535 3536 1 
1131 3263 3535 2 
1132 3513 3514 1 
1133 3527 3528 1 
1134 3527 3777 2 
1135 3777 3778 1 
1136 3763 3764 1 
1137 3531 3532 1 
1138 4017 4018 1 
1139 4017 4285 2 
1140 4285 4286 1 
1141 4278 4266 3 
1142 4278 4277 1 
1143 4266 4272 3 
1144 4266 4265 1 
1145 4266 4270 3 
1146 4270 4272 3 
1147 4270 4269 1 
1148 4270 4278 3 
1149 4272 4278 3 
1150 4272 4271 1 
1151 4513 4514 1 
1152 4809 4810 1 
1153 4761 4762 1 
1154 4516 4262 3 
1155 4262 4261 1 
1156 4779 4780 1 
1157 4281 4787 2 
1158 5046 5045 1 
1159 5789 5790 1 
1160 4745 4746 1 
1161 5289 5290 1 
1162 5001 5002 1 
1163 5001 5263 2 
1164 5749 5750 1 
1165 4775 4776 1 
1166 4775 5011 2 
1167 5021 5022 1 
1168 5534 5264 3 
1169 5264 5263 1 
1170 4774 4773 1 
1171 5022 4774 3 
1172 5493 5494 1 
1173 5761 5762 1 
1174 5515 5516 1 
1175 5003 5004 1 
1176 5003 5515 2 
1177 6003 6004 1 
1178 5763 5764 1 
1179 6025 6026 1 
1180 262 261 1 
1181 6041 6042 1 
1182 6021 6022 1 
1183 267 268 1 
1184 775 776 1 
1185 535 536 1 
1186 535 1021 2 
1187 2041 2042 1 
1188 289 1759 2 
1189 1511 1512 1 
1190 1278 1268 3 
1191 1278 1277 1 
1192 1278 1760 3 
1193 1278 1536 3 
1194 1760 1536 3 
1195 1760 1759 1 
1196 1536 1268 3 
1197 1536 1535 1 
1198 1268 1760 3 
1199 1268 1267 1 
1200 1308 760 3 
1201 760 759 1 
1202 1261 1262 1 
1203 1262 1530 3 
1204 1530 1529 1 
1205 1771 1772 1 
1206 1801 1802 1 
1207 1505 1506 1 
1208 1505 1801 2 
1209 1270 1269 1 
1210 1537 1538 1 
1211 2307 2308 1 
1212 2024 2023 1 
1213 1744 2024 3 
1214 2293 2294 1 
1215 1787 1788 1 
1216 2039 2040 1 
1217 2763 2764 1 
1218 2540 2286 3 
1219 2286 2285 1 
1220 3252 3251 1 
1221 2282 3252 3 
1222 1783 1784 1 
1223 3021 3022 1 
1224 3020 2798 3 
1225 3020 3019 1 
1226 3020 3546 3 
1227 3020 3026 3 
1228 3546 3026 3 
1229 3546 3545 1 
1230 3026 2798 3 
1231 3026 3025 1 
1232 2798 3546 3 
1233 2798 2797 1 
1234 2792 2791 1 
1235 3261 3545 2 
1236 3261 3262 1 
1237 2768 2792 3 
1238 3264 3034 3 
1239 3264 3263 1 
1240 3304 3550 3 
1241 3241 3242 1 
1242 3549 3779 2 
1243 3550 3549 1 
1244 4026 3746 3 
1245 3055 3056 1 
1246 3034 3538 3 
1247 3034 3033 1 
1248 3746 3745 1 
1249 3269 3270 1 
1250 4029 4030 1 
1251 3783 3784 1 
1252 4031 4032 1 
1253 4517 4518 1 
1254 3996 4006 3 
1255 3996 3995 1 
1256 4763 5023 2 
1257 5023 5024 1 
1258 4013 4014 1 
1259 4783 4784 1 
1260 4533 4534 1 
1261 4261 4267 2 
1262 5283 5284 1 
1263 5277 5278 1 
1264 5277 5283 2 
1265 4519 4520 1 
1266 4519 5031 2 
1267 5523 5524 1 
1268 5799 5800 1 
1269 6024 6023 1 
1270 5800 6024 3 
1271 5771 5772 1 
1272 6011 6012 1 
1273 6065 6066 1 
1274 255 256 1 
1275 32 262 3 
1276 39 40 1 
1277 804 548 3 
1278 804 803 1 
1279 558 548 3 
1280 558 557 1 
1281 558 804 3 
1282 548 528 3 
1283 548 547 1 
1284 528 804 3 
1285 528 527 1 
1286 528 558 3 
1287 795 796 1 
1288 550 549 1 
1289 1016 550 3 
1290 47 48 1 
1291 47 517 2 
1292 792 554 3 
1293 792 791 1 
1294 546 792 3 
1295 546 545 1 
1296 771 772 1 
1297 517 518 1 
1298 1055 1056 1 
1299 534 533 1 
1300 1047 1048 1 
1301 1307 1308 1 
1302 1512 534 3 
1303 1772 1282 3 
1304 1539 1540 1 
1305 1549 1550 1 
1306 1282 1281 1 
1307 1572 1302 3 
1308 1302 1301 1 
1309 1555 1556 1 
1310 1291 1292 1 
1311 1773 1774 1 
1312 2539 2540 1 
1313 2313 2314 1 
1314 2313 2775 2 
1315 1797 1798 1 
1316 2543 2544 1 
1317 2035 2036 1 
1318 2775 2776 1 
1319 2807 2808 1 
1320 2301 2302 1 
1321 3031 3032 1 
1322 3309 3310 1 
1323 2781 2782 1 
1324 2781 3289 2 
1325 3289 3290 1 
1326 3043 3044 1 
1327 3043 3327 2 
1328 2524 3316 3 
1329 2524 2523 1 
1330 3538 3264 3 
1331 3538 3537 1 
1332 3045 3046 1 
1333 3316 3534 3 
1334 3316 3315 1 
1335 4062 4061 1 
1336 3560 4062 3 
1337 3796 4062 3 
1338 3294 3796 3 
1339 3294 4062 3 
1340 3521 3522 1 
1341 4052 3804 3 
1342 3539 3540 1 
1343 4523 4524 1 
1344 2795 2796 1 
1345 4547 4548 1 
1346 4273 4274 1 
1347 4273 5297 2 
1348 5297 5298 1 
1349 4789 4790 1 
1350 4557 4558 1 
1351 4550 4764 3 
1352 4550 4549 1 
1353 4550 4556 3 
1354 4771 4772 1 
1355 4764 4532 3 
1356 4764 4763 1 
1357 4556 4764 3 
1358 4556 4555 1 
1359 4532 4550 3 
1360 4532 4531 1 
1361 4532 4556 3 
1362 5054 5254 3 
1363 5054 5053 1 
1364 5311 5312 1 
1365 4796 4795 1 
1366 4293 4294 1 
1367 4791 4792 1 
1368 5033 5034 1 
1369 4295 4296 1 
1370 5254 5032 3 
1371 5254 5253 1 
1372 5032 5054 3 
1373 5032 5031 1 
1374 5038 4796 3 
1375 5293 5294 1 
1376 4511 4512 1 
1377 5299 5300 1 
1378 5543 5544 1 
1379 5549 5550 1 
1380 5570 5569 1 
1381 5310 5570 3 
1382 5271 5272 1 
1383 5309 5310 1 
1384 6047 6048 1 
1385 5531 5781 2 
1386 5781 5782 1 
1387 5779 5780 1 
1388 5782 36 3 
1389 36 35 1 
1390 279 280 1 
1391 67 68 1 
1392 329 330 1 
1393 330 6056 3 
1394 1058 552 3 
1395 552 551 1 
1396 554 546 3 
1397 554 553 1 
1398 71 72 1 
1399 783 784 1 
1400 1063 1064 1 
1401 805 806 1 
1402 805 1553 2 
1403 801 802 1 
1404 1309 1310 1 
1405 1309 1315 2 
1406 1570 1532 3 
1407 1570 1569 1 
1408 1532 1554 3 
1409 1532 1531 1 
1410 1554 1570 3 
1411 1554 1553 1 
1412 1754 2032 3 
1413 1754 1753 1 
1414 1548 1754 3 
1415 1548 1547 1 
1416 1804 780 3 
1417 1804 1803 1 
1418 780 1286 3 
1419 780 779 1 
1420 1286 1804 3 
1421 1286 1285 1 
1422 1297 1298 1 
1423 1303 1304 1 
1424 2053 2054 1 
1425 1795 1796 1 
1426 1795 2053 2 
1427 2033 2034 1 
1428 2325 2326 1 
1429 1305 1306 1 
1430 1305 2325 2 
1431 1321 1322 1 
1432 2067 2068 1 
1433 2067 2587 2 
1434 1577 1578 1 
1435 2059 2060 1 
1436 2059 2287 2 
1437 1827 1828 1 
1438 2021 2022 1 
1439 2045 2046 1 
1440 2563 2564 1 
1441 2563 2817 2 
1442 2817 2818 1 
1443 2306 1790 3 
1444 1790 1789 1 
1445 1799 1800 1 
1446 1799 2069 2 
1447 2801 2802 1 
1448 3325 3326 1 
1449 3065 3066 1 
1450 3065 3325 2 
1451 2065 2066 1 
1452 3328 3060 3 
1453 3328 3327 1 
1454 2570 3328 3 
1455 2570 2569 1 
1456 3329 3330 1 
1457 3285 3286 1 
1458 3285 3293 2 
1459 3293 3294 1 
1460 3296 3036 3 
1461 3053 3559 2 
1462 3559 3560 1 
1463 3295 3296 1 
1464 3795 3796 1 
1465 4307 4308 1 
1466 3039 3040 1 
1467 3781 3782 1 
1468 3555 3556 1 
1469 3555 3781 2 
1470 3319 3320 1 
1471 3775 3776 1 
1472 3807 3808 1 
1473 4317 4318 1 
1474 4535 4536 1 
1475 4051 4052 1 
1476 3785 3786 1 
1477 3811 3812 1 
1478 4069 4070 1 
1479 4299 4300 1 
1480 4531 4553 2 
1481 3805 3806 1 
1482 4553 4554 1 
1483 4085 4086 1 
1484 4053 4054 1 
1485 4053 4305 2 
1486 4305 4306 1 
1487 4805 4806 1 
1488 5037 5038 1 
1489 4801 4802 1 
1490 4567 4568 1 
1491 4567 5331 2 
1492 4537 4538 1 
1493 5582 5040 3 
1494 5582 5581 1 
1495 5314 5582 3 
1496 5314 5313 1 
1497 5040 5314 3 
1498 5040 5039 1 
1499 5313 5545 2 
1500 5545 5546 1 
1501 5791 5792 1 
1502 5317 5318 1 
1503 5043 5044 1 
1504 5043 5317 2 
1505 5272 5558 3 
1506 5041 5042 1 
1507 5041 5785 2 
1508 5777 5778 1 
1509 6067 6068 1 
1510 5793 5794 1 
1511 5552 5542 3 
1512 5806 5805 1 
1513 5542 5541 1 
1514 797 798 1 
1515 317 318 1 
1516 560 66 3 
1517 560 559 1 
1518 60 560 3 
1519 60 59 1 
1520 60 6056 3 
1521 66 60 3 
1522 66 65 1 
1523 300 299 1 
1524 562 300 3 
1525 43 44 1 
1526 318 56 3 
1527 543 544 1 
1528 56 55 1 
1529 313 314 1 
1530 79 80 1 
1531 65 807 2 
1532 579 580 1 
1533 1065 1066 1 
1534 1830 1829 1 
1535 1311 1312 1 
1536 1313 1314 1 
1537 1340 1830 3 
1538 1815 1816 1 
1539 1815 1829 2 
1540 2079 2080 1 
1541 2353 2354 1 
1542 2303 2304 1 
1543 2588 2587 1 
1544 2287 2288 1 
1545 1806 2588 3 
1546 1805 1806 1 
1547 2557 2558 1 
1548 2047 2048 1 
1549 2799 2800 1 
1550 2811 2812 1 
1551 2820 2794 3 
1552 2839 3329 2 
1553 3060 2570 3 
1554 3060 3059 1 
1555 2794 2793 1 
1556 2813 2814 1 
1557 3049 3050 1 
1558 3049 3349 2 
1559 3349 3350 1 
1560 3067 3068 1 
1561 3299 3300 1 
1562 3068 3564 3 
1563 3050 3308 3 
1564 3541 3542 1 
1565 3541 3791 2 
1566 3297 3298 1 
1567 3331 3332 1 
1568 4058 4057 1 
1569 3575 3576 1 
1570 3575 3815 2 
1571 3815 3816 1 
1572 4049 4050 1 
1573 4551 4552 1 
1574 4073 4074 1 
1575 5069 5070 1 
1576 4313 4314 1 
1577 4313 5057 2 
1578 4541 4542 1 
1579 5057 5058 1 
1580 4797 4798 1 
1581 4797 5055 2 
1582 5073 5074 1 
1583 5065 5066 1 
1584 5071 5072 1 
1585 5337 5338 1 
1586 4812 5056 3 
1587 4812 4811 1 
1588 4808 4812 3 
1589 4808 4807 1 
1590 5056 4808 3 
1591 5056 5055 1 
1592 4564 4812 3 
1593 4564 4563 1 
1594 4564 5056 3 
1595 4564 4808 3 
1596 5051 5052 1 
1597 5051 5573 2 
1598 5573 5574 1 
1599 5565 5566 1 
1600 4813 4814 1 
1601 4813 5565 2 
1602 5825 5826 1 
1603 5825 6063 2 
1604 87 88 1 
1605 73 74 1 
1606 64 63 1 
1607 5819 5820 1 
1608 6027 6028 1 
1609 6062 64 3 
1610 5822 5838 3 
1611 5547 5548 1 
1612 5838 5837 1 
1613 5551 5552 1 
1614 5803 5804 1 
1615 57 58 1 
1616 57 6075 2 
1617 307 308 1 
1618 83 307 2 
1619 6075 6076 1 
1620 6057 6058 1 
1621 315 316 1 
1622 315 6057 2 
1623 100 99 1 
1624 95 96 1 
1625 819 820 1 
1626 337 355 2 
1627 567 568 1 
1628 355 356 1 
1629 358 100 3 
1630 1076 1075 1 
1631 835 836 1 
1632 609 610 1 
1633 565 566 1 
1634 1083 1084 1 
1635 1083 1563 2 
1636 581 582 1 
1637 1070 1564 3 
1638 1088 1087 1 
1639 1318 1088 3 
1640 1559 1560 1 
1641 1069 1070 1 
1642 813 814 1 
1643 1317 1318 1 
1644 1327 1328 1 
1645 1586 1585 1 
1646 1089 1090 1 
1647 1575 1576 1 
1648 1845 1846 1 
1649 2815 2816 1 
1650 2579 2580 1 
1651 1576 2084 3 
1652 2084 2083 1 
1653 1825 1826 1 
1654 2107 2108 1 
1655 1793 1794 1 
1656 2081 2082 1 
1657 2081 2089 2 
1658 2051 2052 1 
1659 2051 2315 2 
1660 2311 2312 1 
1661 2851 2852 1 
1662 2071 2311 2 
1663 2594 2330 3 
1664 2593 2594 1 
1665 3037 3095 2 
1666 2837 2838 1 
1667 2837 3059 2 
1668 3079 3080 1 
1669 3561 3562 1 
1670 2805 2806 1 
1671 3603 3604 1 
1672 3061 3062 1 
1673 3564 3563 1 
1674 2583 2584 1 
1675 3551 3552 1 
1676 3563 3831 2 
1677 3793 3794 1 
1678 3799 3800 1 
1679 4341 4342 1 
1680 4077 4078 1 
1681 4321 4351 2 
1682 4351 4352 1 
1683 3591 3592 1 
1684 4827 4828 1 
1685 4329 4827 2 
1686 4343 4344 1 
1687 4587 4588 1 
1688 3827 3828 1 
1689 3827 4343 2 
1690 4577 4578 1 
1691 4601 4602 1 
1692 4833 4834 1 
1693 5077 5078 1 
1694 5088 5087 1 
1695 4832 5088 3 
1696 4800 4799 1 
1697 4799 5099 2 
1698 5559 5560 1 
1699 5816 5815 1 
1700 5321 5322 1 
1701 74 5816 3 
1702 5821 5822 1 
1703 353 354 1 
1704 6081 6082 1 
1705 303 304 1 
1706 303 5609 2 
1707 5609 5610 1 
1708 593 594 1 
1709 77 78 1 
1710 340 86 3 
1711 340 339 1 
1712 6098 340 3 
1713 6098 6097 1 
1714 86 6098 3 
1715 86 85 1 
1716 331 332 1 
1717 93 94 1 
1718 89 90 1 
1719 575 576 1 
1720 597 598 1 
1721 305 306 1 
1722 359 360 1 
1723 564 563 1 
1724 1085 1086 1 
1725 843 844 1 
1726 829 830 1 
1727 1341 1342 1 
1728 1341 1831 2 
1729 1551 1552 1 
1730 1077 1078 1 
1731 1582 842 3 
1732 842 841 1 
1733 1368 1596 3 
1734 1573 1574 1 
1735 1596 1595 1 
1736 1343 1344 1 
1737 1859 1860 1 
1738 1837 1838 1 
1739 1335 1336 1 
1740 1335 1809 2 
1741 2599 2600 1 
1742 1579 1580 1 
1743 1097 1098 1 
1744 1599 1600 1 
1745 2319 2320 1 
1746 2089 2090 1 
1747 1839 1840 1 
1748 2074 1810 3 
1749 1810 1809 1 
1750 2577 2578 1 
1751 1819 1820 1 
1752 1819 2577 2 