ITEM: TIMESTEP
89760
ITEM: NUMBER OF ENTRIES
8149
ITEM: BOX BOUNDS pp pp ff
0.0000000000000000e+00 7.2168784000000002e+01
0.0000000000000000e+00 7.2168784000000002e+01
0.0000000000000000e+00 1.2000000000000000e+01
ITEM: ENTRIES index c_1[1] c_1[2] c_1[3]
1 24 474 3 
2 24 23 1 
3 24 6018 3 
4 24 6014 3 
5 266 265 1 
6 6014 6018 3 
7 6014 6013 1 
8 34 248 3 
9 34 33 1 
10 34 6022 3 
11 474 6014 3 
12 474 473 1 
13 12 34 3 
14 12 11 1 
15 12 6022 3 
16 6018 474 3 
17 6018 6017 1 
18 244 243 1 
19 6002 244 3 
20 5518 490 3 
21 5518 5517 1 
22 5754 5518 3 
23 5754 5753 1 
24 33 501 2 
25 490 5754 3 
26 490 489 1 
27 5730 5729 1 
28 6052 748 3 
29 748 747 1 
30 1747 1757 2 
31 1724 1748 3 
32 1724 1723 1 
33 1724 2012 3 
34 2279 2509 2 
35 2760 2759 1 
36 3018 2760 3 
37 2223 3447 2 
38 2261 2771 2 
39 2777 3787 2 
40 3262 3788 3 
41 3262 3261 1 
42 2992 2778 3 
43 2992 2991 1 
44 2992 3002 3 
45 2262 3262 3 
46 2262 2261 1 
47 2262 2518 3 
48 2518 3262 3 
49 2518 2517 1 
50 2518 3788 3 
51 3002 2778 3 
52 3002 3001 1 
53 3002 3006 3 
54 3006 2992 3 
55 3006 3005 1 
56 2778 3006 3 
57 2778 2777 1 
58 3788 2262 3 
59 3788 3787 1 
60 2991 3277 2 
61 3277 3278 1 
62 4726 3506 3 
63 4726 4725 1 
64 4504 4018 3 
65 4504 4503 1 
66 4504 4726 3 
67 4018 3506 3 
68 4018 4017 1 
69 4018 4726 3 
70 3506 4504 3 
71 3506 3505 1 
72 3543 3811 2 
73 4002 4462 3 
74 4002 4001 1 
75 4002 4530 3 
76 4002 4748 3 
77 6246 4488 3 
78 6246 6245 1 
79 4488 5238 3 
80 4488 4487 1 
81 5238 6246 3 
82 5238 5237 1 
83 6011 6021 2 
84 6001 6002 1 
85 6001 6009 2 
86 5772 252 3 
87 5772 5771 1 
88 6012 5772 3 
89 6012 6011 1 
90 1002 1020 3 
91 1002 1001 1 
92 1002 1758 3 
93 1758 1020 3 
94 1758 1757 1 
95 1020 536 3 
96 1020 1019 1 
97 536 1002 3 
98 536 535 1 
99 536 1758 3 
100 1772 1774 3 
101 1772 1771 1 
102 1522 1774 3 
103 1522 1521 1 
104 1522 1772 3 
105 1282 1772 3 
106 1282 1281 1 
107 1282 1522 3 
108 2002 2486 3 
109 2002 2774 3 
110 2486 2485 1 
111 2486 2774 3 
112 2298 2526 3 
113 2298 2297 1 
114 2298 2774 3 
115 2526 2764 3 
116 2526 2525 1 
117 2764 2298 3 
118 2764 2763 1 
119 1768 2510 3 
120 2271 2763 2 
121 1519 2275 2 
122 2302 2512 3 
123 2512 2530 3 
124 2512 2522 3 
125 2772 2530 3 
126 2772 2771 1 
127 2532 2772 3 
128 2532 2531 1 
129 2522 2532 3 
130 2522 2772 3 
131 2530 2532 3 
132 2530 2529 1 
133 2301 2302 1 
134 2301 2797 2 
135 2528 3780 3 
136 4011 4012 1 
137 3014 3544 3 
138 3014 3013 1 
139 3014 4028 3 
140 3014 4046 3 
141 4028 3544 3 
142 4028 4027 1 
143 3770 3769 1 
144 4012 3770 3 
145 3544 4046 3 
146 3544 3543 1 
147 4046 4028 3 
148 4046 4045 1 
149 3769 4503 2 
150 3992 3502 3 
151 3502 3501 1 
152 4735 4736 1 
153 4493 4735 2 
154 29 251 2 
155 5765 6013 2 
156 252 6012 3 
157 252 251 1 
158 252 5768 3 
159 5768 5772 3 
160 5768 5767 1 
161 5768 6012 3 
162 786 296 3 
163 786 785 1 
164 786 790 3 
165 518 786 3 
166 518 517 1 
167 518 790 3 
168 5803 5804 1 
169 292 291 1 
170 5804 292 3 
171 545 553 2 
172 1760 1536 3 
173 1760 1759 1 
174 1281 1541 2 
175 1774 1282 3 
176 1774 1773 1 
177 1773 2297 2 
178 1520 2296 3 
179 1520 1519 1 
180 1520 2818 3 
181 2314 1520 3 
182 2314 2313 1 
183 2314 2818 3 
184 2272 2271 1 
185 2531 2731 2 
186 2818 2296 3 
187 2818 2817 1 
188 2296 2314 3 
189 2296 2295 1 
190 2546 2272 3 
191 3252 2282 3 
192 3252 3251 1 
193 2282 1784 3 
194 2282 2281 1 
195 1784 3252 3 
196 1784 1783 1 
197 3780 3779 1 
198 4026 3746 3 
199 4026 4036 3 
200 4036 4035 1 
201 3803 3804 1 
202 3803 4051 2 
203 3013 4513 2 
204 4534 5036 3 
205 4534 4533 1 
206 5036 4282 3 
207 5036 5035 1 
208 4264 5036 3 
209 4264 4263 1 
210 4264 4534 3 
211 4287 4288 1 
212 4005 4287 2 
213 4282 4264 3 
214 4282 4281 1 
215 4282 4534 3 
216 3991 3992 1 
217 3281 3991 2 
218 4315 4316 1 
219 4301 4315 2 
220 4500 4276 3 
221 4500 4499 1 
222 5277 5283 2 
223 4765 5537 2 
224 20 1330 3 
225 1330 1329 1 
226 296 518 3 
227 296 295 1 
228 790 296 3 
229 790 789 1 
230 258 38 3 
231 1278 1268 3 
232 1278 1277 1 
233 1278 1760 3 
234 1278 1536 3 
235 1268 1760 3 
236 1268 1267 1 
237 1536 1268 3 
238 1536 1535 1 
239 1542 1792 3 
240 1542 1541 1 
241 1542 2308 3 
242 2308 1290 3 
243 2308 2307 1 
244 1792 2308 3 
245 1792 1791 1 
246 1290 1792 3 
247 1290 1289 1 
248 1290 1542 3 
249 794 290 3 
250 794 793 1 
251 290 2290 3 
252 290 289 1 
253 2284 1778 3 
254 2284 2283 1 
255 1778 1292 3 
256 1778 1777 1 
257 1292 2284 3 
258 1292 1291 1 
259 2313 2775 2 
260 2563 2817 2 
261 3804 4052 3 
262 3031 3309 2 
263 4052 4051 1 
264 4052 3312 3 
265 3312 3311 1 
266 3312 3804 3 
267 4801 4802 1 
268 5284 5296 3 
269 5284 5283 1 
270 5284 5760 3 
271 5760 4804 3 
272 5760 5759 1 
273 5296 4804 3 
274 5296 5295 1 
275 5296 5760 3 
276 4804 5284 3 
277 4804 4803 1 
278 5262 5538 3 
279 5262 5261 1 
280 5538 6048 3 
281 5538 5537 1 
282 6048 5262 3 
283 6048 6047 1 
284 5544 5318 3 
285 5318 5317 1 
286 294 52 3 
287 294 293 1 
288 294 5548 3 
289 537 5779 2 
290 70 798 3 
291 70 69 1 
292 70 72 3 
293 798 314 3 
294 798 797 1 
295 314 70 3 
296 314 313 1 
297 72 314 3 
298 72 71 1 
299 72 798 3 
300 1539 1791 2 
301 1333 2307 2 
302 1289 2283 2 
303 2552 3784 3 
304 3784 3783 1 
305 3291 3299 2 
306 3292 3310 3 
307 3292 3291 1 
308 3792 3292 3 
309 3792 3791 1 
310 3310 3792 3 
311 3310 3309 1 
312 3607 3608 1 
313 3607 3813 2 
314 3067 3321 2 
315 4086 3332 3 
316 4086 4085 1 
317 4086 4588 3 
318 3331 3567 2 
319 353 5541 2 
320 5044 5302 3 
321 5044 5043 1 
322 5814 5044 3 
323 5814 5813 1 
324 5814 5830 3 
325 5302 5814 3 
326 5302 5301 1 
327 5302 5830 3 
328 5043 5317 2 
329 329 330 1 
330 329 561 2 
331 783 5777 2 
332 2316 1096 3 
333 1096 1095 1 
334 1540 1572 3 
335 1540 1539 1 
336 1302 1540 3 
337 1302 1301 1 
338 1064 1572 3 
339 1064 1063 1 
340 1064 1540 3 
341 1064 1302 3 
342 1572 1302 3 
343 1572 1571 1 
344 2304 1314 3 
345 1314 1313 1 
346 1063 1817 2 
347 2084 2322 3 
348 2084 2083 1 
349 2322 1576 3 
350 2322 2321 1 
351 1576 2084 3 
352 1576 1575 1 
353 2070 2069 1 
354 2070 3352 3 
355 3086 2844 3 
356 3086 3085 1 
357 2562 3086 3 
358 2562 2561 1 
359 2562 3074 3 
360 3074 3086 3 
361 3074 3073 1 
362 2844 2562 3 
363 2844 2843 1 
364 2844 3074 3 
365 2809 2810 1 
366 3065 3325 2 
367 3563 3831 2 
368 3584 3583 1 
369 3064 2788 3 
370 3064 3063 1 
371 2788 4076 3 
372 2788 2787 1 
373 4076 3064 3 
374 4076 4075 1 
375 3332 4588 3 
376 3332 3331 1 
377 4588 3776 3 
378 4588 4587 1 
379 3776 3332 3 
380 3776 3775 1 
381 3776 4086 3 
382 3568 4058 3 
383 3568 3567 1 
384 3568 4300 3 
385 4292 3568 3 
386 4292 4291 1 
387 4292 4300 3 
388 4058 4292 3 
389 4058 4057 1 
390 4300 4058 3 
391 4300 4299 1 
392 5301 6087 2 
393 5825 6063 2 
394 5805 6043 2 
395 76 562 3 
396 76 75 1 
397 5794 5568 3 
398 5794 5793 1 
399 5794 5808 3 
400 5560 5808 3 
401 5560 5559 1 
402 5560 5794 3 
403 5808 5568 3 
404 5808 5807 1 
405 5568 5560 3 
406 5568 5567 1 
407 6028 6076 3 
408 6028 6096 3 
409 355 356 1 
410 337 355 2 
411 596 1092 3 
412 596 595 1 
413 1814 596 3 
414 1814 1813 1 
415 571 1559 2 
416 1551 1552 1 
417 1560 1078 3 
418 1560 1559 1 
419 844 1560 3 
420 844 843 1 
421 1078 844 3 
422 1078 1077 1 
423 2291 2353 2 
424 2353 2354 1 
425 2058 2306 3 
426 2058 2057 1 
427 2058 3352 3 
428 2581 2582 1 
429 2354 2582 3 
430 2354 3038 3 
431 1790 2058 3 
432 1790 1789 1 
433 1790 2354 3 
434 2824 3038 3 
435 2321 2857 2 
436 2045 2046 1 
437 2045 3043 2 
438 1845 1846 1 
439 2046 2312 3 
440 2046 2582 3 
441 2312 2311 1 
442 2072 2071 1 
443 3343 3353 2 
444 3847 3829 2 
445 3583 3599 2 
446 3323 3775 2 
447 3324 3848 3 
448 3324 3323 1 
449 3830 3324 3 
450 3830 3829 1 
451 4291 4587 2 
452 3575 3815 2 
453 3572 4072 3 
454 3572 3571 1 
455 3572 3816 3 
456 4321 4351 2 
457 4309 4543 2 
458 3835 4057 2 
459 4335 4541 2 
460 5097 5593 2 
461 4826 4582 3 
462 6084 5816 3 
463 6084 6083 1 
464 5340 5840 3 
465 5340 5339 1 
466 6072 5340 3 
467 6072 6071 1 
468 5840 6072 3 
469 5840 5839 1 
470 5084 5340 3 
471 5084 5083 1 
472 5084 6072 3 
473 5084 5840 3 
474 5610 74 3 
475 5610 5609 1 
476 5610 5816 3 
477 5610 6084 3 
478 5559 6053 2 
479 5807 5839 2 
480 5567 5781 2 
481 6081 6082 1 
482 858 876 3 
483 858 857 1 
484 95 96 1 
485 95 6081 2 
486 1148 1147 1 
487 81 82 1 
488 81 563 2 
489 82 564 3 
490 82 840 3 
491 564 563 1 
492 564 840 3 
493 840 839 1 
494 1102 596 3 
495 1102 1101 1 
496 1102 1814 3 
497 1101 1637 2 
498 1341 1342 1 
499 1341 1831 2 
500 1336 1860 3 
501 1336 1596 3 
502 1336 1342 3 
503 1342 1596 3 
504 1342 1860 3 
505 847 848 1 
506 847 2077 2 
507 2063 2064 1 
508 817 2319 2 
509 841 843 2 
510 2319 2320 1 
511 2074 1810 3 
512 2074 2073 1 
513 2360 2610 3 
514 2360 2359 1 
515 2610 2340 3 
516 2610 2609 1 
517 1846 2580 3 
518 3044 2828 3 
519 3044 3043 1 
520 2340 2360 3 
521 2340 2339 1 
522 2592 2858 3 
523 2592 2591 1 
524 2338 2072 3 
525 2580 2579 1 
526 2337 2338 1 
527 2337 2827 2 
528 2095 2096 1 
529 2095 2591 2 
530 3093 3615 2 
531 3848 3830 3 
532 3848 3847 1 
533 4082 3818 3 
534 4082 4081 1 
535 3612 4082 3 
536 3612 3611 1 
537 3818 3612 3 
538 3818 3817 1 
539 4117 4341 2 
540 3822 4572 3 
541 3822 3821 1 
542 3822 4610 3 
543 3850 3822 3 
544 3850 3849 1 
545 3850 4610 3 
546 4610 4572 3 
547 4610 4609 1 
548 4572 3850 3 
549 4572 4571 1 
550 3833 4571 2 
551 3833 3834 1 
552 4824 4886 3 
553 4340 4604 3 
554 4340 4339 1 
555 4544 4798 3 
556 4544 4543 1 
557 4604 5346 3 
558 4604 4603 1 
559 4114 4113 1 
560 5346 4340 3 
561 5346 5345 1 
562 4823 4824 1 
563 5079 5345 2 
564 5098 4836 3 
565 5098 5097 1 
566 4836 5078 3 
567 4836 4835 1 
568 4836 5334 3 
569 5334 5098 3 
570 5334 5333 1 
571 98 5620 3 
572 98 97 1 
573 97 331 2 
574 115 857 2 
575 332 592 3 
576 332 331 1 
577 332 350 3 
578 332 344 3 
579 376 874 3 
580 1638 860 3 
581 874 873 1 
582 1637 1638 1 
583 839 1337 2 
584 1354 1108 3 
585 1354 1353 1 
586 1354 1834 3 
587 1834 1108 3 
588 1834 1833 1 
589 1114 812 3 
590 1114 1113 1 
591 1114 1634 3 
592 862 1354 3 
593 862 861 1 
594 862 1834 3 
595 1595 2099 2 
596 1596 1595 1 
597 1335 1336 1 
598 1335 1809 2 
599 2090 2074 3 
600 2090 2089 1 
601 1810 2090 3 
602 1810 1809 1 
603 1812 1810 3 
604 1812 1811 1 
605 1812 2074 3 
606 1812 2090 3 
607 1811 2623 2 
608 2601 2609 2 
609 1819 2577 2 
610 2828 3604 3 
611 2828 2827 1 
612 3604 3044 3 
613 3604 3603 1 
614 2109 2607 2 
615 2816 2082 3 
616 2082 2081 1 
617 2357 2358 1 
618 2351 2357 2 
619 2366 2365 1 
620 2096 2366 3 
621 3092 3606 3 
622 3092 3091 1 
623 3606 3864 3 
624 3606 3605 1 
625 3864 3092 3 
626 3864 3863 1 
627 2584 3360 3 
628 2584 2583 1 
629 3112 2584 3 
630 3112 3111 1 
631 3112 3360 3 
632 4822 4346 3 
633 4822 4821 1 
634 3106 2584 3 
635 3106 3105 1 
636 3106 3112 3 
637 4122 4822 3 
638 4122 4346 3 
639 4122 4121 1 
640 4342 4122 3 
641 4342 4822 3 
642 4342 4341 1 
643 3360 3106 3 
644 3360 3359 1 
645 3593 3863 2 
646 3611 3837 2 
647 3837 3838 1 
648 4363 4364 1 
649 2841 3333 2 
650 3834 4114 3 
651 5080 5562 3 
652 5080 5079 1 
653 109 125 2 
654 4375 4376 1 
655 4375 5375 2 
656 5136 5368 3 
657 5136 5135 1 
658 6106 98 3 
659 6106 6105 1 
660 5620 6106 3 
661 5620 5619 1 
662 654 864 3 
663 654 653 1 
664 370 654 3 
665 370 369 1 
666 370 616 3 
667 370 864 3 
668 864 616 3 
669 864 863 1 
670 616 654 3 
671 616 615 1 
672 603 851 2 
673 343 831 2 
674 90 116 3 
675 116 115 1 
676 1338 1114 3 
677 1338 1337 1 
678 812 1338 3 
679 812 811 1 
680 812 1634 3 
681 1601 1602 1 
682 1634 1338 3 
683 1634 1633 1 
684 2099 2100 1 
685 2566 2565 1 
686 1617 2855 2 
687 1850 2566 3 
688 1606 1630 3 
689 1606 1605 1 
690 1630 1836 3 
691 1630 1629 1 
692 1630 2602 3 
693 2602 1606 3 
694 2602 2601 1 
695 2624 2344 3 
696 2624 2623 1 
697 2850 2624 3 
698 2850 2849 1 
699 1857 3099 2 
700 1836 1606 3 
701 1836 1835 1 
702 1836 2602 3 
703 3099 3100 1 
704 1402 1352 3 
705 1402 1401 1 
706 2608 2624 3 
707 2608 2607 1 
708 2608 2850 3 
709 1849 1850 1 
710 2344 2850 3 
711 2344 2343 1 
712 2344 2608 3 
713 2854 2853 1 
714 3100 2854 3 
715 2826 2862 3 
716 2826 2825 1 
717 1867 1868 1 
718 1867 2371 2 
719 2862 3084 3 
720 2862 2861 1 
721 2363 2861 2 
722 2365 2595 2 
723 2595 2596 1 
724 2358 2870 3 
725 2870 2869 1 
726 2894 2342 3 
727 2894 2893 1 
728 4346 4342 3 
729 4346 4345 1 
730 3111 3591 2 
731 3591 3592 1 
732 4121 4607 2 
733 3375 3883 2 
734 3861 3862 1 
735 3861 4345 2 
736 3873 4363 2 
737 3884 3124 3 
738 3884 3883 1 
739 2336 3884 3 
740 2336 2335 1 
741 2336 3874 3 
742 5351 5817 2 
743 5586 5118 3 
744 5586 5585 1 
745 4868 6140 3 
746 4868 4867 1 
747 4868 5586 3 
748 4868 5118 3 
749 5118 6140 3 
750 5118 5117 1 
751 6140 5586 3 
752 6140 6139 1 
753 1079 1080 1 
754 1079 1355 2 
755 877 5875 2 
756 615 1431 2 
757 5597 5598 1 
758 5597 5637 2 
759 889 1371 2 
760 1625 1629 2 
761 1131 1139 2 
762 1605 1869 2 
763 1862 1590 3 
764 1862 1861 1 
765 1589 1849 2 
766 1132 3134 3 
767 1132 1131 1 
768 2372 1132 3 
769 2372 2371 1 
770 3134 2372 3 
771 3134 3133 1 
772 1858 1857 1 
773 1858 3340 3 
774 1858 2616 3 
775 2376 1862 3 
776 2376 2375 1 
777 1590 2376 3 
778 1590 1589 1 
779 1401 1591 2 
780 2343 2369 2 
781 1847 2615 2 
782 1848 1847 1 
783 2611 3083 2 
784 2611 2612 1 
785 2596 1848 3 
786 2869 3117 2 
787 3644 3844 3 
788 3644 3643 1 
789 3844 3380 3 
790 3844 3843 1 
791 3380 3644 3 
792 3380 3379 1 
793 3397 3843 2 
794 3379 3895 2 
795 3852 3898 3 
796 3852 3851 1 
797 3898 2866 3 
798 3898 3897 1 
799 2866 3852 3 
800 2866 2865 1 
801 3862 3624 3 
802 3376 4146 3 
803 3376 3375 1 
804 4146 3144 3 
805 4146 4145 1 
806 3144 3376 3 
807 3144 3143 1 
808 3625 3626 1 
809 3625 3851 2 
810 2865 3901 2 
811 2335 3123 2 
812 4870 4370 3 
813 4870 4869 1 
814 3626 4370 3 
815 3626 4870 3 
816 3626 4104 3 
817 4370 4104 3 
818 4370 4369 1 
819 4104 4870 3 
820 4104 4103 1 
821 4851 4881 2 
822 4120 5356 3 
823 4120 4119 1 
824 5356 5122 3 
825 5356 5355 1 
826 4383 4889 2 
827 4362 4384 3 
828 4384 4383 1 
829 6116 5626 3 
830 5626 5625 1 
831 852 851 1 
832 5842 5841 1 
833 1080 852 3 
834 342 102 3 
835 342 341 1 
836 342 878 3 
837 102 6086 3 
838 102 101 1 
839 102 878 3 
840 878 6086 3 
841 878 877 1 
842 6086 342 3 
843 6086 6085 1 
844 1356 1106 3 
845 1356 1355 1 
846 1432 1356 3 
847 1432 1431 1 
848 1106 1432 3 
849 1106 1105 1 
850 5858 5857 1 
851 5598 5858 3 
852 414 1376 3 
853 1376 1375 1 
854 895 1873 2 
855 1651 1652 1 
856 1651 1917 2 
857 1381 1382 1 
858 1381 1897 2 
859 1855 1899 2 
860 2903 3133 2 
861 2903 2904 1 
862 2390 2389 1 
863 2904 2390 3 
864 1853 2155 2 
865 3668 2676 3 
866 3668 3667 1 
867 3418 2676 3 
868 3418 3417 1 
869 3418 3668 3 
870 2676 2658 3 
871 2676 2675 1 
872 3370 3369 1 
873 3162 3370 3 
874 2867 3635 2 
875 2867 2868 1 
876 3371 3372 1 
877 2877 3897 2 
878 4923 4924 1 
879 4369 4869 2 
880 5122 4120 3 
881 5122 5121 1 
882 4397 5355 2 
883 4882 5114 3 
884 4882 4881 1 
885 5114 4638 3 
886 5114 5113 1 
887 4638 4882 3 
888 4638 4637 1 
889 4638 4864 3 
890 4891 4892 1 
891 5127 5361 2 
892 660 6150 3 
893 660 659 1 
894 660 5172 3 
895 660 6188 3 
896 144 6148 3 
897 144 143 1 
898 642 144 3 
899 642 641 1 
900 642 6148 3 
901 6148 416 3 
902 6148 6147 1 
903 413 1429 2 
904 413 414 1 
905 1874 1900 3 
906 1874 1873 1 
907 1918 1874 3 
908 1918 1917 1 
909 1900 1918 3 
910 1900 1899 1 
911 1358 1874 3 
912 1358 1357 1 
913 1358 1918 3 
914 1358 1900 3 
915 1898 1624 3 
916 1898 1897 1 
917 1907 2373 2 
918 2655 3151 2 
919 3161 4141 2 
920 3161 3162 1 
921 3146 3130 3 
922 3146 3145 1 
923 3636 3146 3 
924 3636 3635 1 
925 3130 3636 3 
926 3130 3129 1 
927 3372 3910 3 
928 5394 4678 3 
929 4924 3622 3 
930 3622 3621 1 
931 5393 5394 1 
932 2911 4131 2 
933 4678 4677 1 
934 5154 5144 3 
935 5144 5143 1 
936 5664 4138 3 
937 4138 4137 1 
938 5431 5653 2 
939 5623 5895 2 
940 6188 6150 3 
941 6188 6187 1 
942 5172 6188 3 
943 5172 5171 1 
944 6150 5172 3 
945 6150 6149 1 
946 416 144 3 
947 416 415 1 
948 416 642 3 
949 409 6187 2 
950 185 1161 2 
951 410 186 3 
952 410 409 1 
953 392 410 3 
954 392 391 1 
955 392 1692 3 
956 1692 410 3 
957 1692 1691 1 
958 186 1692 3 
959 186 185 1 
960 186 392 3 
961 953 1623 2 
962 2361 2362 1 
963 939 2361 2 
964 3174 2656 3 
965 3174 3173 1 
966 3174 3680 3 
967 2656 2934 3 
968 2656 2655 1 
969 2656 3680 3 
970 3886 2912 3 
971 2912 2911 1 
972 4893 5153 2 
973 5153 5154 1 
974 4399 5617 2 
975 4657 4658 1 
976 4657 5167 2 
977 4878 4400 3 
978 4878 4877 1 
979 4400 4888 3 
980 4400 4399 1 
981 4888 4878 3 
982 4888 4887 1 
983 155 6135 2 
984 426 425 1 
985 1208 1182 3 
986 1208 1207 1 
987 2673 3165 2 
988 2670 2192 3 
989 2670 2669 1 
990 2670 2674 3 
991 3163 3173 2 
992 3912 4172 3 
993 3912 3911 1 
994 4172 3396 3 
995 4172 4171 1 
996 3396 3912 3 
997 3396 3395 1 
998 3164 3666 3 
999 3164 3163 1 
1000 3164 3388 3 
1001 3666 3906 3 
1002 3666 3665 1 
1003 3388 3906 3 
1004 3388 3387 1 
1005 3388 3666 3 
1006 3906 3164 3 
1007 3906 3905 1 
1008 4652 5168 3 
1009 4652 4651 1 
1010 4894 4652 3 
1011 4894 4893 1 
1012 4894 5618 3 
1013 5618 4652 3 
1014 5618 5617 1 
1015 5168 4894 3 
1016 5168 5167 1 
1017 5168 5618 3 
1018 5440 5940 3 
1019 5440 5439 1 
1020 5440 5914 3 
1021 5914 5162 3 
1022 5914 5913 1 
1023 5940 5914 3 
1024 5940 5939 1 
1025 5406 5405 1 
1026 6138 5406 3 
1027 5369 5433 2 
1028 425 447 2 
1029 673 951 2 
1030 952 460 3 
1031 952 951 1 
1032 460 702 3 
1033 460 459 1 
1034 460 692 3 
1035 702 952 3 
1036 702 701 1 
1037 459 935 2 
1038 1688 2432 3 
1039 1688 1687 1 
1040 2432 1706 3 
1041 2432 2431 1 
1042 1687 1949 2 
1043 1706 1688 3 
1044 1706 1705 1 
1045 1435 1436 1 
1046 1435 2447 2 
1047 2684 2902 3 
1048 2684 2683 1 
1049 2684 3392 3 
1050 2198 2684 3 
1051 2198 2197 1 
1052 2435 2669 2 
1053 4167 4457 2 
1054 4165 4673 2 
1055 6217 6218 1 
1056 6222 5210 3 
1057 6222 6221 1 
1058 5454 6222 3 
1059 5454 5453 1 
1060 5183 5453 2 
1061 5425 5426 1 
1062 5425 5955 2 
1063 1178 894 3 
1064 1178 1177 1 
1065 670 1178 3 
1066 670 669 1 
1067 894 670 3 
1068 894 893 1 
1069 693 1177 2 
1070 427 428 1 
1071 448 652 3 
1072 448 447 1 
1073 657 683 2 
1074 214 213 1 
1075 936 682 3 
1076 936 935 1 
1077 710 936 3 
1078 710 709 1 
1079 672 936 3 
1080 672 671 1 
1081 672 710 3 
1082 682 672 3 
1083 682 681 1 
1084 682 710 3 
1085 1447 1693 2 
1086 671 921 2 
1087 1665 1666 1 
1088 1453 1665 2 
1089 2172 1966 3 
1090 1966 1965 1 
1091 3401 3435 2 
1092 3401 3402 1 
1093 2900 2899 1 
1094 3402 2900 3 
1095 2899 3673 2 
1096 4220 4672 3 
1097 4672 4671 1 
1098 4219 4693 2 
1099 4219 4220 1 
1100 3976 3460 3 
1101 3460 3459 1 
1102 4163 4164 1 
1103 3939 4163 2 
1104 4682 4212 3 
1105 4682 4681 1 
1106 4682 4694 3 
1107 4694 3686 3 
1108 4694 4693 1 
1109 4212 4694 3 
1110 4212 4211 1 
1111 3686 4212 3 
1112 3686 3685 1 
1113 3686 4682 3 
1114 3738 3737 1 
1115 3929 4667 2 
1116 3685 4717 2 
1117 4166 3430 3 
1118 4166 4165 1 
1119 3930 4166 3 
1120 3930 3929 1 
1121 4444 4458 3 
1122 4458 4457 1 
1123 3430 3930 3 
1124 3430 3429 1 
1125 4199 4933 2 
1126 5224 5223 1 
1127 5458 5224 3 
1128 5218 5220 3 
1129 5218 5217 1 
1130 6218 424 3 
1131 424 423 1 
1132 423 5933 2 
1133 5210 5454 3 
1134 5210 5209 1 
1135 194 193 1 
1136 196 194 3 
1137 450 6198 3 
1138 450 449 1 
1139 6198 5960 3 
1140 6198 6197 1 
1141 5960 450 3 
1142 5960 5959 1 
1143 428 694 3 
1144 5994 730 3 
1145 730 729 1 
1146 694 693 1 
1147 453 923 2 
1148 923 924 1 
1149 680 666 3 
1150 680 679 1 
1151 680 1186 3 
1152 1186 666 3 
1153 1186 1185 1 
1154 666 434 3 
1155 666 665 1 
1156 434 680 3 
1157 434 433 1 
1158 434 1186 3 
1159 950 238 3 
1160 458 436 3 
1161 458 457 1 
1162 436 1180 3 
1163 436 435 1 
1164 1180 458 3 
1165 1180 1179 1 
1166 679 6175 2 
1167 2426 1940 3 
1168 709 1461 2 
1169 1217 1941 2 
1170 1940 1939 1 
1171 1964 1720 3 
1172 1964 1963 1 
1173 1964 2206 3 
1174 1942 1964 3 
1175 1942 1941 1 
1176 1942 2206 3 
1177 1666 1454 3 
1178 1454 1453 1 
1179 1720 1719 1 
1180 1720 2206 3 
1181 1204 1684 3 
1182 1204 1203 1 
1183 3946 3450 3 
1184 3946 3945 1 
1185 3450 3958 3 
1186 3450 3449 1 
1187 3958 3946 3 
1188 3958 3957 1 
1189 2948 3958 3 
1190 2948 2947 1 
1191 2948 3450 3 
1192 2948 3946 3 
1193 2446 2930 3 
1194 2446 3458 3 
1195 2446 3190 3 
1196 3712 3928 3 
1197 3712 3711 1 
1198 3459 3957 2 
1199 3449 3941 2 
1200 3928 3458 3 
1201 3928 3927 1 
1202 3945 4671 2 
1203 3190 3189 1 
1204 3974 3738 3 
1205 3975 3976 1 
1206 3719 3931 2 
1207 3702 3701 1 
1208 4211 4465 2 
1209 3934 4956 3 
1210 3934 3933 1 
1211 4443 4444 1 
1212 4209 5451 2 
1213 4936 4718 3 
1214 4936 4935 1 
1215 3707 4443 2 
1216 4706 4936 3 
1217 4706 4718 3 
1218 4706 4705 1 
1219 4448 4210 3 
1220 4448 4447 1 
1221 4448 5442 3 
1222 4698 4448 3 
1223 4698 4697 1 
1224 4698 5442 3 
1225 5442 4210 3 
1226 5442 5441 1 
1227 4210 4698 3 
1228 4210 4209 1 
1229 4447 5217 2 
1230 4432 4934 3 
1231 5457 5458 1 
1232 4697 5457 2 
1233 5195 5196 1 
1234 5195 5219 2 
1235 4934 4933 1 
1236 4434 4184 3 
1237 4434 4433 1 
1238 5476 4434 3 
1239 5476 5475 1 
1240 4469 4470 1 
1241 4469 4703 2 
1242 4958 4434 3 
1243 4958 4957 1 
1244 4958 5476 3 
1245 4184 4958 3 
1246 4184 4183 1 
1247 4184 5476 3 
1248 4433 5717 2 
1249 4704 4980 3 
1250 4704 4703 1 
1251 4704 5954 3 
1252 4460 5218 3 
1253 4460 4459 1 
1254 5220 4460 3 
1255 5220 5219 1 
1256 5900 4704 3 
1257 5900 5899 1 
1258 5900 5954 3 
1259 465 6239 2 
1260 209 729 2 
1261 6220 6219 1 
1262 924 920 3 
1263 698 924 3 
1264 698 920 3 
1265 920 919 1 
1266 716 920 3 
1267 716 6220 3 
1268 200 698 3 
1269 200 716 3 
1270 200 924 3 
1271 433 697 2 
1272 6197 6219 2 
1273 697 698 1 
1274 221 222 1 
1275 221 431 2 
1276 238 237 1 
1277 457 6199 2 
1278 237 1493 2 
1279 6200 472 3 
1280 6200 6199 1 
1281 216 6200 3 
1282 216 215 1 
1283 216 1714 3 
1284 1462 1496 3 
1285 1462 1461 1 
1286 472 216 3 
1287 472 471 1 
1288 472 1714 3 
1289 1714 6200 3 
1290 1714 1713 1 
1291 1713 1983 2 
1292 1496 1480 3 
1293 1496 1495 1 
1294 1225 1421 2 
1295 2212 2456 3 
1296 2212 2211 1 
1297 1708 2212 3 
1298 1708 1707 1 
1299 3967 3977 2 
1300 2445 2446 1 
1301 2445 3207 2 
1302 2946 2704 3 
1303 2946 2945 1 
1304 2946 3226 3 
1305 2704 3424 3 
1306 2704 2703 1 
1307 3226 2704 3 
1308 3226 3225 1 
1309 3226 3424 3 
1310 3968 3967 1 
1311 3926 3968 3 
1312 3421 3422 1 
1313 3421 3711 2 
1314 3422 3702 3 
1315 3465 3749 2 
1316 3933 3959 2 
1317 3466 3762 3 
1318 3466 3465 1 
1319 3762 4464 3 
1320 3762 3761 1 
1321 4464 3466 3 
1322 4464 4463 1 
1323 3761 5441 2 
1324 4988 4438 3 
1325 4988 4987 1 
1326 4474 4206 3 
1327 4474 4473 1 
1328 4474 4988 3 
1329 4206 4988 3 
1330 4206 4205 1 
1331 4438 4206 3 
1332 4438 4437 1 
1333 4438 4474 3 
1334 5464 232 3 
1335 5464 5463 1 
1336 232 466 3 
1337 232 231 1 
1338 466 5464 3 
1339 466 465 1 
1340 4960 4959 1 
1341 5182 4960 3 
1342 227 228 1 
1343 227 993 2 
1344 464 463 1 
1345 438 6238 3 
1346 438 437 1 
1347 438 504 3 
1348 438 6250 3 
1349 480 464 3 
1350 1476 1488 3 
1351 1476 1726 3 
1352 1488 1487 1 
1353 1488 1726 3 
1354 1491 1735 2 
1355 2730 2236 3 
1356 2730 2729 1 
1357 1477 1991 2 
1358 1486 2236 3 
1359 1486 1485 1 
1360 1486 2730 3 
1361 1486 1736 3 
1362 2236 1736 3 
1363 2236 2235 1 
1364 1736 2730 3 
1365 1736 1735 1 
1366 2461 2462 1 
1367 1991 1992 1 
1368 2700 3472 3 
1369 2700 2699 1 
1370 2460 2700 3 
1371 2460 2459 1 
1372 3208 2190 3 
1373 3208 3984 3 
1374 3208 3207 1 
1375 3472 2460 3 
1376 3472 3471 1 
1377 2450 3208 3 
1378 2450 2449 1 
1379 2190 3984 3 
1380 2190 2450 3 
1381 2190 2189 1 
1382 3984 2450 3 
1383 3984 3983 1 
1384 2232 2460 3 
1385 2232 2231 1 
1386 2232 2700 3 
1387 2232 3472 3 
1388 3473 3474 1 
1389 3473 4193 2 
1390 4194 4198 3 
1391 4194 4193 1 
1392 4194 4208 3 
1393 4208 4198 3 
1394 4208 4207 1 
1395 3477 3721 2 
1396 4198 3960 3 
1397 4198 4197 1 
1398 3960 4194 3 
1399 3960 3959 1 
1400 3960 4208 3 
1401 5028 4232 3 
1402 5028 5027 1 
1403 4016 5028 3 
1404 4016 4015 1 
1405 4232 4016 3 
1406 4232 4231 1 
1407 4479 4713 2 
1408 4982 4992 3 
1409 4982 4981 1 
1410 4714 4982 3 
1411 4714 4713 1 
1412 4992 4714 3 
1413 4992 4991 1 
1414 4733 4734 1 
1415 4733 5025 2 
1416 4981 5203 2 
1417 5246 5248 3 
1418 5248 5247 1 
1419 231 5973 2 
1420 5181 5182 1 
1421 5181 6249 2 
1422 241 5709 2 
1423 5709 5710 1 
1424 504 6238 3 
1425 504 503 1 
1426 6250 504 3 
1427 6250 6249 1 
1428 6238 6250 3 
1429 6238 6237 1 
1430 463 971 2 
1431 7 497 2 
1432 971 972 1 
1433 254 5982 3 
1434 254 253 1 
1435 254 6026 3 
1436 6026 5982 3 
1437 6026 6025 1 
1438 987 988 1 
1439 987 6229 2 
1440 731 749 2 
1441 5 733 2 
1442 1216 1458 3 
1443 1216 1215 1 
1444 1470 1216 3 
1445 1470 1469 1 
1446 1458 1470 3 
1447 1458 1457 1 
1448 1232 1492 3 
1449 1232 1231 1 
1450 1232 2246 3 
1451 1492 1254 3 
1452 1492 1491 1 
1453 1202 1490 3 
1454 1202 1201 1 
1455 1478 1477 1 
1456 1474 1478 3 
1457 1465 1466 1 
1458 1465 1473 2 
1459 1473 1474 1 
1460 2215 2705 2 
1461 2966 2710 3 
1462 2966 2965 1 
1463 2710 2990 3 
1464 2710 2709 1 
1465 2990 2966 3 
1466 2990 2989 1 
1467 3980 3979 1 
1468 3979 3983 2 
1469 3474 3980 3 
1470 3468 2516 3 
1471 3468 3467 1 
1472 3478 3508 3 
1473 3478 3477 1 
1474 3722 3478 3 
1475 3722 3721 1 
1476 3722 4486 3 
1477 4486 3478 3 
1478 4486 4485 1 
1479 4480 4970 3 
1480 4480 4479 1 
1481 4970 4260 3 
1482 4970 4969 1 
1483 3774 4260 3 
1484 3774 3773 1 
1485 3774 4970 3 
1486 3774 4480 3 
1487 4260 4480 3 
1488 4260 4259 1 
1489 3773 4747 2 
1490 4259 4721 2 
1491 4722 4990 3 
1492 4722 4721 1 
1493 4231 4751 2 
1494 4990 5222 3 
1495 4990 4989 1 
1496 5222 4722 3 
1497 5222 5221 1 
1498 4284 5222 3 
1499 4284 4283 1 
1500 4284 4722 3 
1501 4284 4990 3 
1502 5487 5991 2 
1503 5974 226 3 
1504 5974 5973 1 
1505 242 5974 3 
1506 242 226 3 
1507 242 241 1 
1508 236 242 3 
1509 236 5974 3 
1510 236 235 1 
1511 226 236 3 
1512 226 225 1 
1513 5720 192 3 
1514 5720 5719 1 
1515 264 192 3 
1516 264 263 1 
1517 264 5720 3 
1518 192 8 3 
1519 192 191 1 
1520 8 264 3 
1521 8 7 1 
1522 8 5720 3 
1523 6022 248 3 
1524 6022 6021 1 
1525 248 12 3 
1526 248 247 1 
1527 243 475 2 
1528 475 476 1 
1529 476 972 3 
1530 476 750 3 
1531 734 1004 3 
1532 734 733 1 
1533 734 972 3 
1534 1004 750 3 
1535 1004 1003 1 
1536 750 734 3 
1537 750 749 1 
1538 972 1004 3 
1539 6051 6052 1 
1540 11 6051 2 
1541 247 5753 2 
1542 1245 1246 1 
1543 3 747 2 
1544 1224 1730 3 
1545 1224 1223 1 
1546 736 1224 3 
1547 736 735 1 
1548 2242 2224 3 
1549 2242 2241 1 
1550 2515 2747 2 
1551 3492 3254 3 
1552 3798 3812 3 
1553 3798 3797 1 
1554 3491 3492 1 
1555 3491 4485 2 
1556 3812 3016 3 
1557 3812 3811 1 
1558 3016 3798 3 
1559 3016 3015 1 
1560 3505 3765 2 
1561 4748 4530 3 
1562 4748 4747 1 
1563 4462 4748 3 
1564 4462 4461 1 
1565 3504 4022 3 
1566 4530 4462 3 
1567 4530 4529 1 
1568 5493 5494 1 
1569 5763 6245 2 
1570 4223 4224 1 
1571 4223 4757 2 
1572 5488 5487 1 
1573 14 6228 3 
1574 14 13 1 
1575 14 6226 3 
1576 6226 5480 3 
1577 6226 6225 1 
1578 6226 6228 3 
1579 964 5488 3 
1580 225 6025 2 
1581 5732 266 3 
1582 489 519 2 
1583 4997 5729 2 
1584 249 5517 2 
1585 473 525 2 
1586 46 5730 3 
1587 501 502 1 
1588 525 526 1 
1589 45 5999 2 
1590 45 46 1 
1591 6065 6066 1 
1592 1276 1030 3 
1593 1276 1275 1 
1594 1012 782 3 
1595 1012 1011 1 
1596 1012 1030 3 
1597 1012 1276 3 
1598 782 1276 3 
1599 782 781 1 
1600 1239 1240 1 
1601 485 1239 2 
1602 711 721 2 
1603 526 522 3 
1604 526 1022 3 
1605 270 522 3 
1606 270 768 3 
1607 270 526 3 
1608 781 1523 2 
1609 722 1510 3 
1610 722 721 1 
1611 522 521 1 
1612 522 768 3 
1613 768 1022 3 
1614 1260 722 3 
1615 1260 1259 1 
1616 1030 782 3 
1617 1030 1029 1 
1618 502 1022 3 
1619 502 516 3 
1620 509 1243 2 
1621 233 269 2 
1622 269 270 1 
1623 1013 1241 2 
1624 515 516 1 
1625 515 1263 2 
1626 1256 1250 3 
1627 1256 1255 1 
1628 741 742 1 
1629 741 973 2 
1630 1228 1000 3 
1631 1228 1227 1 
1632 1222 1228 3 
1633 1222 1221 1 
1634 1000 1222 3 
1635 1000 999 1 
1636 1780 1034 3 
1637 1780 1779 1 
1638 1770 1270 3 
1639 1019 1779 2 
1640 1748 1766 3 
1641 1748 1747 1 
1642 2012 1748 3 
1643 2012 2011 1 
1644 1279 2019 2 
1645 2024 2023 1 
1646 1744 2024 3 
1647 1769 1770 1 
1648 1280 1786 3 
1649 1280 1279 1 
1650 1008 1280 3 
1651 1008 1007 1 
1652 1008 1508 3 
1653 1766 1724 3 
1654 1766 1765 1 
1655 1766 2012 3 
1656 1508 1280 3 
1657 1508 1507 1 
1658 1508 1786 3 
1659 1723 2253 2 
1660 1786 1008 3 
1661 1786 1785 1 
1662 2253 2254 1 
1663 1511 1512 1 
1664 1511 1743 2 
1665 2741 2742 1 
1666 2791 3267 2 
1667 1752 1751 1 
1668 2506 2505 1 
1669 1518 2492 3 
1670 1518 2254 3 
1671 1518 2786 3 
1672 2492 2506 3 
1673 2280 2279 1 
1674 2280 2492 3 
1675 2280 2786 3 
1676 2254 2280 3 
1677 2254 2786 3 
1678 2742 1752 3 
1679 2481 2482 1 
1680 2481 3017 2 
1681 2276 2018 3 
1682 2276 2275 1 
1683 2508 2276 3 
1684 2508 2507 1 
1685 2508 2754 3 
1686 3017 3018 1 
1687 2018 2508 3 
1688 2018 2017 1 
1689 2018 2754 3 
1690 2754 2276 3 
1691 2754 2753 1 
1692 2792 3268 3 
1693 2792 2791 1 
1694 2017 2513 2 
1695 3510 3010 3 
1696 3510 3509 1 
1697 3010 3986 3 
1698 3010 3009 1 
1699 3986 3510 3 
1700 3986 3985 1 
1701 2536 2535 1 
1702 2998 2514 3 
1703 2998 2997 1 
1704 2496 2536 3 
1705 3261 3545 2 
1706 2495 2496 1 
1707 3303 3304 1 
1708 2983 2997 2 
1709 2983 2984 1 
1710 3227 3303 2 
1711 2490 2248 3 
1712 2490 2489 1 
1713 2490 3448 3 
1714 3448 3012 3 
1715 3448 3447 1 
1716 2251 2489 2 
1717 2248 3012 3 
1718 2248 2247 1 
1719 2248 3448 3 
1720 4257 4258 1 
1721 3756 3004 3 
1722 3756 3755 1 
1723 3522 3521 1 
1724 3030 3756 3 
1725 3030 3029 1 
1726 3030 3278 3 
1727 3004 3030 3 
1728 3004 3003 1 
1729 3269 3270 1 
1730 2783 3269 2 
1731 3278 4258 3 
1732 3278 3522 3 
1733 3270 4024 3 
1734 3990 3989 1 
1735 4258 3522 3 
1736 3736 3990 3 
1737 3768 3764 3 
1738 3768 3767 1 
1739 3778 3768 3 
1740 3778 3777 1 
1741 4245 4529 2 
1742 4271 4743 2 
1743 4272 4278 3 
1744 4272 4271 1 
1745 4278 4266 3 
1746 4278 4277 1 
1747 4270 4272 3 
1748 4270 4269 1 
1749 4270 4278 3 
1750 4266 4272 3 
1751 4266 4265 1 