ITEM: TIMESTEP
96360
ITEM: NUMBER OF ENTRIES
8187
ITEM: BOX BOUNDS pp pp ff
0.0000000000000000e+00 7.2168784000000002e+01
0.0000000000000000e+00 7.2168784000000002e+01
0.0000000000000000e+00 1.2000000000000000e+01
ITEM: ENTRIES index c_1[1] c_1[2] c_1[3]
1 5732 266 3 
2 244 243 1 
3 6002 244 3 
4 6022 248 3 
5 6022 6021 1 
6 34 248 3 
7 34 33 1 
8 34 6022 3 
9 248 12 3 
10 248 247 1 
11 12 34 3 
12 12 11 1 
13 12 6022 3 
14 1002 1020 3 
15 1002 1001 1 
16 1002 1758 3 
17 1758 1020 3 
18 1758 1757 1 
19 536 1002 3 
20 536 535 1 
21 536 1758 3 
22 1020 536 3 
23 1020 1019 1 
24 1223 1257 2 
25 2276 2018 3 
26 2276 2275 1 
27 2754 2276 3 
28 2754 2753 1 
29 2508 2276 3 
30 2508 2507 1 
31 2508 2754 3 
32 2018 2508 3 
33 2018 2017 1 
34 2018 2754 3 
35 2732 1504 3 
36 2732 2731 1 
37 2732 2762 3 
38 1504 2252 3 
39 1504 1503 1 
40 2223 3447 2 
41 2252 2732 3 
42 2252 2251 1 
43 2252 2762 3 
44 3006 2992 3 
45 3006 3005 1 
46 3262 3788 3 
47 3262 3261 1 
48 2518 3262 3 
49 2518 2517 1 
50 2518 3788 3 
51 3448 3012 3 
52 3448 3447 1 
53 2262 3262 3 
54 2262 2261 1 
55 2262 2518 3 
56 3012 2490 3 
57 3012 3011 1 
58 3788 2262 3 
59 3788 3787 1 
60 2778 3006 3 
61 2778 2777 1 
62 3016 3798 3 
63 3016 3015 1 
64 3492 3254 3 
65 3812 3016 3 
66 3812 3811 1 
67 3798 3812 3 
68 3798 3797 1 
69 3015 3525 2 
70 5249 5250 1 
71 5249 5481 2 
72 29 251 2 
73 6011 6021 2 
74 22 512 3 
75 22 274 3 
76 22 6242 3 
77 5766 5765 1 
78 5766 6242 3 
79 47 48 1 
80 47 517 2 
81 2001 2002 1 
82 2001 2485 2 
83 2510 2509 1 
84 1768 2510 3 
85 2002 2486 3 
86 2002 2774 3 
87 2753 2773 2 
88 2773 2774 1 
89 1519 2275 2 
90 2531 2731 2 
91 2251 2489 2 
92 2777 3787 2 
93 3803 3804 1 
94 3803 4051 2 
95 3769 4503 2 
96 3539 3540 1 
97 4048 4500 3 
98 4048 4047 1 
99 4276 4048 3 
100 4276 4275 1 
101 4500 4276 3 
102 4500 4499 1 
103 5259 5737 2 
104 208 207 1 
105 529 530 1 
106 530 208 3 
107 6010 6009 1 
108 6010 5766 3 
109 512 511 1 
110 512 274 3 
111 512 5766 3 
112 274 273 1 
113 274 6010 3 
114 6242 6010 3 
115 296 518 3 
116 296 295 1 
117 518 786 3 
118 518 517 1 
119 518 790 3 
120 790 296 3 
121 790 789 1 
122 1330 1329 1 
123 545 553 2 
124 20 1330 3 
125 792 554 3 
126 792 791 1 
127 792 1068 3 
128 554 546 3 
129 554 553 1 
130 554 1068 3 
131 546 792 3 
132 546 545 1 
133 546 1068 3 
134 772 1032 3 
135 772 771 1 
136 1268 1760 3 
137 1268 1267 1 
138 1267 1549 2 
139 1281 1541 2 
140 1282 1772 3 
141 1282 1281 1 
142 1282 1522 3 
143 1522 1774 3 
144 1522 1521 1 
145 1522 1772 3 
146 1774 1282 3 
147 1774 1773 1 
148 1772 1774 3 
149 1772 1771 1 
150 2313 2775 2 
151 2271 2763 2 
152 1520 2296 3 
153 1520 1519 1 
154 1520 2818 3 
155 2818 2296 3 
156 2818 2817 1 
157 2314 1520 3 
158 2314 2313 1 
159 2314 2818 3 
160 2296 2314 3 
161 2296 2295 1 
162 3252 2282 3 
163 3252 3251 1 
164 1784 3252 3 
165 1784 1783 1 
166 2282 1784 3 
167 2282 2281 1 
168 1783 3035 2 
169 2528 3780 3 
170 3780 3779 1 
171 3770 3769 1 
172 4026 3746 3 
173 4026 4036 3 
174 3992 3502 3 
175 3502 3501 1 
176 3501 3539 2 
177 4006 4042 3 
178 4006 4005 1 
179 3996 4006 3 
180 3996 3995 1 
181 4042 3996 3 
182 4042 4041 1 
183 3282 4042 3 
184 3282 3281 1 
185 3282 3996 3 
186 3282 4006 3 
187 4493 4735 2 
188 4735 4736 1 
189 5039 5535 2 
190 5073 5581 2 
191 4528 5582 3 
192 4528 4527 1 
193 4528 5040 3 
194 4528 5314 3 
195 5314 5040 3 
196 5314 5313 1 
197 5760 4804 3 
198 5760 5759 1 
199 5284 5296 3 
200 5284 5283 1 
201 5284 5760 3 
202 5296 4804 3 
203 5296 5295 1 
204 5296 5760 3 
205 5040 5582 3 
206 5040 5039 1 
207 5582 5314 3 
208 5582 5581 1 
209 4804 5284 3 
210 4804 4803 1 
211 5260 5038 3 
212 5260 5259 1 
213 5038 4760 3 
214 5038 5037 1 
215 4760 4796 3 
216 4760 4759 1 
217 4760 5260 3 
218 27 6033 2 
219 786 296 3 
220 786 785 1 
221 786 790 3 
222 5803 5804 1 
223 557 789 2 
224 1278 1268 3 
225 1278 1277 1 
226 1278 1760 3 
227 1278 1536 3 
228 1536 1268 3 
229 1536 1535 1 
230 1760 1536 3 
231 1760 1759 1 
232 289 1759 2 
233 1792 2308 3 
234 1792 1791 1 
235 1542 1792 3 
236 1542 1541 1 
237 1542 2308 3 
238 2308 1290 3 
239 2308 2307 1 
240 1290 1792 3 
241 1290 1289 1 
242 1290 1542 3 
243 2044 2564 3 
244 2044 2043 1 
245 2272 2271 1 
246 2546 2272 3 
247 2552 3784 3 
248 3784 3783 1 
249 2551 2552 1 
250 4801 4802 1 
251 5294 5536 3 
252 5294 5293 1 
253 5536 5332 3 
254 5536 5535 1 
255 4014 5536 3 
256 4014 4013 1 
257 4014 5332 3 
258 4014 5294 3 
259 6050 5988 3 
260 6050 6049 1 
261 538 6044 3 
262 538 537 1 
263 6044 322 3 
264 6044 6043 1 
265 784 538 3 
266 784 783 1 
267 784 6044 3 
268 322 538 3 
269 322 321 1 
270 322 784 3 
271 5821 5822 1 
272 75 6093 2 
273 69 589 2 
274 70 798 3 
275 70 69 1 
276 70 72 3 
277 798 314 3 
278 798 797 1 
279 314 70 3 
280 314 313 1 
281 72 314 3 
282 72 71 1 
283 72 798 3 
284 2051 2315 2 
285 1301 1569 2 
286 1823 2289 2 
287 2315 2316 1 
288 1333 2307 2 
289 1824 1800 3 
290 1824 1823 1 
291 1289 2283 2 
292 1800 2292 3 
293 1800 1799 1 
294 1800 2022 3 
295 2292 1824 3 
296 2292 2291 1 
297 3602 3832 3 
298 3602 3601 1 
299 3031 3309 2 
300 3563 3831 2 
301 3291 3299 2 
302 3310 3792 3 
303 3310 3309 1 
304 3792 3292 3 
305 3792 3791 1 
306 3292 3310 3 
307 3292 3291 1 
308 3541 3791 2 
309 3786 3785 1 
310 3860 3786 3 
311 3332 4588 3 
312 3332 3331 1 
313 4086 3332 3 
314 4086 4085 1 
315 4086 4588 3 
316 4588 3776 3 
317 4588 4587 1 
318 3776 3332 3 
319 3776 3775 1 
320 3776 4086 3 
321 4763 5023 2 
322 3331 3567 2 
323 5551 6049 2 
324 5043 5317 2 
325 783 5777 2 
326 313 559 2 
327 329 330 1 
328 329 561 2 
329 5822 5838 3 
330 5838 5837 1 
331 827 1095 2 
332 1540 1572 3 
333 1540 1539 1 
334 1572 1302 3 
335 1572 1571 1 
336 1096 1095 1 
337 1302 1540 3 
338 1302 1301 1 
339 1064 1572 3 
340 1064 1063 1 
341 1064 1540 3 
342 1064 1302 3 
343 2316 1096 3 
344 2079 2331 2 
345 1313 1807 2 
346 2291 2353 2 
347 2353 2354 1 
348 2823 2824 1 
349 3832 3840 3 
350 3832 3831 1 
351 3840 3602 3 
352 3840 3839 1 
353 3814 3564 3 
354 3814 3813 1 
355 3061 4311 2 
356 3596 3584 3 
357 3859 4075 2 
358 3859 3860 1 
359 3063 3569 2 
360 3584 3583 1 
361 3323 3775 2 
362 4291 4587 2 
363 4292 3568 3 
364 4292 4291 1 
365 4292 4300 3 
366 3568 4058 3 
367 3568 3567 1 
368 3568 4300 3 
369 4300 4058 3 
370 4300 4299 1 
371 3579 3821 2 
372 3579 3580 1 
373 4058 4292 3 
374 4058 4057 1 
375 5812 5786 3 
376 5812 5811 1 
377 5082 5786 3 
378 5082 5081 1 
379 5082 5596 3 
380 5082 5812 3 
381 353 5541 2 
382 5044 5302 3 
383 5044 5043 1 
384 5814 5044 3 
385 5814 5813 1 
386 5814 5830 3 
387 5830 5044 3 
388 5830 5829 1 
389 5302 5814 3 
390 5302 5301 1 
391 5302 5830 3 
392 5559 6053 2 
393 6054 354 3 
394 6054 6053 1 
395 5552 5542 3 
396 5552 5551 1 
397 5820 5552 3 
398 5820 5819 1 
399 5794 5568 3 
400 5794 5793 1 
401 5794 5808 3 
402 5806 6054 3 
403 5806 5805 1 
404 5806 5826 3 
405 354 5806 3 
406 354 353 1 
407 354 5826 3 
408 303 304 1 
409 303 5609 2 
410 581 1065 2 
411 1814 596 3 
412 1814 1813 1 
413 1102 596 3 
414 1102 1101 1 
415 1102 1814 3 
416 596 1092 3 
417 596 595 1 
418 1092 1814 3 
419 1092 1091 1 
420 1092 1102 3 
421 1069 1327 2 
422 571 1559 2 
423 1560 1078 3 
424 1560 1559 1 
425 1551 1552 1 
426 1551 2599 2 
427 2058 2306 3 
428 2058 2057 1 
429 2058 3352 3 
430 2354 2582 3 
431 2354 3038 3 
432 1826 2070 3 
433 2070 2069 1 
434 2070 3352 3 
435 1790 2058 3 
436 1790 1789 1 
437 1790 2354 3 
438 2306 1790 3 
439 2306 2305 1 
440 2306 3352 3 
441 2071 2311 2 
442 1845 1846 1 
443 1825 1845 2 
444 1825 1826 1 
445 2072 2071 1 
446 2338 2072 3 
447 3050 3308 3 
448 3308 3307 1 
449 3847 3829 2 
450 4076 3064 3 
451 4076 4075 1 
452 2788 4076 3 
453 2788 2787 1 
454 3064 2788 3 
455 3064 3063 1 
456 3343 3353 2 
457 2787 3589 2 
458 4310 4309 1 
459 4610 4572 3 
460 4610 4609 1 
461 3822 4572 3 
462 3822 3821 1 
463 3822 4610 3 
464 4572 3850 3 
465 4572 4571 1 
466 3850 3822 3 
467 3850 3849 1 
468 3850 4610 3 
469 3849 4601 2 
470 3835 4057 2 
471 3836 4544 3 
472 3836 3835 1 
473 4544 4798 3 
474 4544 4543 1 
475 6088 6087 1 
476 74 6084 3 
477 74 73 1 
478 61 6071 2 
479 5816 74 3 
480 5816 5815 1 
481 5542 5820 3 
482 5542 5541 1 
483 5560 5808 3 
484 5560 5559 1 
485 5560 5794 3 
486 5808 5568 3 
487 5808 5807 1 
488 5568 5560 3 
489 5568 5567 1 
490 5610 74 3 
491 5610 5609 1 
492 5610 5816 3 
493 5610 6084 3 
494 6084 5816 3 
495 6084 6083 1 
496 98 5620 3 
497 98 97 1 
498 6106 98 3 
499 6106 6105 1 
500 5620 6106 3 
501 5620 5619 1 
502 6081 6082 1 
503 95 96 1 
504 95 6081 2 
505 345 575 2 
506 81 82 1 
507 81 563 2 
508 96 1324 3 
509 1637 1638 1 
510 1101 1637 2 
511 564 563 1 
512 564 840 3 
513 595 1107 2 
514 840 839 1 
515 844 1560 3 
516 844 843 1 
517 1078 844 3 
518 1078 1077 1 
519 847 848 1 
520 847 2077 2 
521 1077 1367 2 
522 2367 2368 1 
523 2581 2582 1 
524 2359 2367 2 
525 2340 2360 3 
526 2340 2339 1 
527 2610 2340 3 
528 2610 2609 1 
529 2360 2610 3 
530 2360 2359 1 
531 2110 2340 3 
532 2110 2109 1 
533 2110 2610 3 
534 2110 2360 3 
535 2045 2046 1 
536 2045 3043 2 
537 1846 2580 3 
538 2337 2338 1 
539 2337 2827 2 
540 2580 2579 1 
541 2846 2352 3 
542 2846 2845 1 
543 3616 2846 3 
544 3616 3615 1 
545 2352 3616 3 
546 2352 2351 1 
547 2834 3354 3 
548 2834 2833 1 
549 3354 3338 3 
550 3354 3353 1 
551 4117 4341 2 
552 4114 4113 1 
553 3833 4571 2 
554 3833 3834 1 
555 5606 4840 3 
556 5606 5605 1 
557 4105 4609 2 
558 5315 5316 1 
559 5316 6088 3 
560 5807 5839 2 
561 115 857 2 
562 1335 1336 1 
563 1335 1809 2 
564 817 2319 2 
565 2063 2064 1 
566 2319 2320 1 
567 1097 2565 2 
568 2090 2074 3 
569 2090 2089 1 
570 2074 1810 3 
571 2074 2073 1 
572 1812 1810 3 
573 1812 1811 1 
574 1812 2074 3 
575 1812 2090 3 
576 2601 2609 2 
577 1835 2115 2 
578 2109 2607 2 
579 2826 2862 3 
580 2826 2825 1 
581 2096 2366 3 
582 2805 2806 1 
583 2805 3603 2 
584 2845 2863 2 
585 2357 2358 1 
586 2864 2894 3 
587 2864 2863 1 
588 2342 2864 3 
589 2342 2341 1 
590 2342 2364 3 
591 2894 2342 3 
592 2894 2893 1 
593 2364 2864 3 
594 2364 2363 1 
595 2364 2894 3 
596 3091 3335 2 
597 3092 3606 3 
598 3092 3091 1 
599 3864 3092 3 
600 3864 3863 1 
601 3360 3106 3 
602 3360 3359 1 
603 3606 3864 3 
604 3606 3605 1 
605 3106 2584 3 
606 3106 3105 1 
607 3106 3112 3 
608 2584 3360 3 
609 2584 2583 1 
610 3112 2584 3 
611 3112 3111 1 
612 3112 3360 3 
613 4342 4122 3 
614 4342 4822 3 
615 4342 4341 1 
616 3111 3591 2 
617 3593 3863 2 
618 4338 3090 3 
619 4346 4342 3 
620 4346 4345 1 
621 3591 3592 1 
622 4122 4822 3 
623 4122 4346 3 
624 4122 4121 1 
625 4332 4100 3 
626 4332 4331 1 
627 4100 4856 3 
628 4100 4099 1 
629 4324 4100 3 
630 4324 4323 1 
631 4324 4332 3 
632 4324 4856 3 
633 4856 4332 3 
634 4856 4855 1 
635 4604 5346 3 
636 4604 4603 1 
637 4340 4604 3 
638 4340 4339 1 
639 5346 4340 3 
640 5346 5345 1 
641 5376 4580 3 
642 5376 5375 1 
643 5079 5345 2 
644 4595 5093 2 
645 4375 4376 1 
646 4375 5375 2 
647 5136 5368 3 
648 5136 5135 1 
649 615 1431 2 
650 116 115 1 
651 90 116 3 
652 1601 1602 1 
653 2128 2136 3 
654 2128 2127 1 
655 1810 2090 3 
656 1810 1809 1 
657 2566 2565 1 
658 1870 1852 3 
659 1870 1869 1 
660 1394 1870 3 
661 1394 1393 1 
662 1852 1394 3 
663 1852 1851 1 
664 1850 2566 3 
665 1849 1850 1 
666 1630 1836 3 
667 1630 1629 1 
668 1630 2602 3 
669 1606 1630 3 
670 1606 1605 1 
671 1811 2623 2 
672 2602 1606 3 
673 2602 2601 1 
674 1836 1606 3 
675 1836 1835 1 
676 1836 2602 3 
677 1589 1849 2 
678 3084 2826 3 
679 3084 3083 1 
680 2825 3339 2 
681 2624 2344 3 
682 2624 2623 1 
683 2344 2850 3 
684 2344 2343 1 
685 2344 2608 3 
686 2850 2624 3 
687 2850 2849 1 
688 2608 2624 3 
689 2608 2607 1 
690 2608 2850 3 
691 2862 3084 3 
692 2862 2861 1 
693 2363 2861 2 
694 2596 1848 3 
695 2611 3083 2 
696 2611 2612 1 
697 2873 3643 2 
698 1848 1847 1 
699 2358 2870 3 
700 2870 2869 1 
701 3644 3844 3 
702 3644 3643 1 
703 3380 3644 3 
704 3380 3379 1 
705 3379 3895 2 
706 4822 4346 3 
707 4822 4821 1 
708 3862 3624 3 
709 3624 3623 1 
710 4386 4620 3 
711 4386 4385 1 
712 3884 3124 3 
713 3884 3883 1 
714 3874 3884 3 
715 3874 3873 1 
716 3124 2336 3 
717 3124 3123 1 
718 3124 3874 3 
719 2336 3884 3 
720 2336 2335 1 
721 2336 3874 3 
722 3592 3838 3 
723 3592 4386 3 
724 3861 3862 1 
725 3861 4345 2 
726 3144 3376 3 
727 3144 3143 1 
728 3837 3838 1 
729 4146 3144 3 
730 4146 4145 1 
731 3611 3837 2 
732 4383 4889 2 
733 5123 5133 2 
734 5124 5136 3 
735 5124 5123 1 
736 5368 5124 3 
737 5368 5367 1 
738 1079 1080 1 
739 1079 1355 2 
740 1356 1106 3 
741 1356 1355 1 
742 877 5875 2 
743 1432 1356 3 
744 1432 1431 1 
745 1106 1432 3 
746 1106 1105 1 
747 889 1371 2 
748 895 1873 2 
749 1618 2128 3 
750 1618 1617 1 
751 1618 2092 3 
752 1618 2136 3 
753 1605 1869 2 
754 1131 1139 2 
755 2376 1862 3 
756 2376 2375 1 
757 1590 2376 3 
758 1590 1589 1 
759 1862 1590 3 
760 1862 1861 1 
761 1617 2855 2 
762 2903 3133 2 
763 2903 2904 1 
764 2856 1858 3 
765 2856 2855 1 
766 2856 3340 3 
767 1858 1857 1 
768 1858 3340 3 
769 1858 2616 3 
770 3340 2616 3 
771 3340 3339 1 
772 2616 2856 3 
773 2616 2615 1 
774 1847 2615 2 
775 3180 3179 1 
776 2612 3180 3 
777 2869 3117 2 
778 3844 3380 3 
779 3844 3843 1 
780 1843 2635 2 
781 3898 2866 3 
782 3898 3897 1 
783 3852 3898 3 
784 3852 3851 1 
785 2866 3852 3 
786 2866 2865 1 
787 3625 3626 1 
788 3625 3851 2 
789 2335 3123 2 
790 3143 3641 2 
791 4870 4370 3 
792 4870 4869 1 
793 3626 4370 3 
794 3626 4870 3 
795 3626 4104 3 
796 4370 4104 3 
797 4370 4369 1 
798 4104 4870 3 
799 4104 4103 1 
800 4103 4115 2 
801 4384 4383 1 
802 4362 4384 3 
803 4361 4362 1 
804 4361 4585 2 
805 5626 5625 1 
806 6116 5626 3 
807 5362 5878 3 
808 5362 5361 1 
809 4156 5362 3 
810 4156 4155 1 
811 5878 4156 3 
812 5878 5877 1 
813 342 102 3 
814 342 341 1 
815 342 878 3 
816 102 6086 3 
817 102 101 1 
818 102 878 3 
819 6086 342 3 
820 6086 6085 1 
821 878 6086 3 
822 878 877 1 
823 5876 374 3 
824 5876 5875 1 
825 166 5876 3 
826 166 165 1 
827 166 380 3 
828 380 374 3 
829 380 379 1 
830 380 5876 3 
831 374 166 3 
832 374 373 1 
833 5598 5858 3 
834 5858 5857 1 
835 1105 1135 2 
836 5597 5598 1 
837 5597 5637 2 
838 414 1376 3 
839 1376 1375 1 
840 633 634 1 
841 413 1429 2 
842 413 414 1 
843 2125 2126 1 
844 2125 2151 2 
845 1358 1874 3 
846 1358 1357 1 
847 1358 1918 3 
848 1358 1900 3 
849 1874 1900 3 
850 1874 1873 1 
851 1918 1874 3 
852 1918 1917 1 
853 1900 1918 3 
854 1900 1899 1 
855 2374 2174 3 
856 2374 2373 1 
857 1651 1652 1 
858 1651 1917 2 
859 2152 2374 3 
860 2152 2151 1 
861 1882 2174 3 
862 1882 1881 1 
863 1882 2374 3 
864 1882 2152 3 
865 2174 2152 3 
866 2174 2173 1 
867 1855 1899 2 
868 2132 2131 1 
869 2613 2614 1 
870 2407 2613 2 
871 1875 2633 2 
872 2384 2634 3 
873 2384 2383 1 
874 2384 3104 3 
875 3104 2634 3 
876 3104 3103 1 
877 2604 2384 3 
878 2604 2603 1 
879 2604 3104 3 
880 2904 2390 3 
881 2634 2604 3 
882 2634 2633 1 
883 2390 2389 1 
884 3371 3372 1 
885 3135 3909 2 
886 3135 3136 1 
887 5393 5394 1 
888 3136 2878 3 
889 2878 2877 1 
890 3902 3618 3 
891 3902 3901 1 
892 3902 3924 3 
893 3924 3642 3 
894 3924 3923 1 
895 3642 3902 3 
896 3642 3641 1 
897 4120 5356 3 
898 4120 4119 1 
899 4409 4901 2 
900 3923 4923 2 
901 5356 5122 3 
902 5356 5355 1 
903 4851 4881 2 
904 5122 4120 3 
905 5122 5121 1 
906 4891 4892 1 
907 4397 5355 2 
908 4902 5424 3 
909 4902 4901 1 
910 4902 5632 3 
911 5121 5143 2 
912 5424 5894 3 
913 5424 5423 1 
914 5127 5361 2 
915 6150 5172 3 
916 6150 6149 1 
917 144 6148 3 
918 144 143 1 
919 6148 416 3 
920 6148 6147 1 
921 1400 412 3 
922 1400 1399 1 
923 6160 1400 3 
924 6160 6159 1 
925 412 6160 3 
926 412 411 1 
927 412 644 3 
928 867 1149 2 
929 644 1400 3 
930 644 643 1 
931 644 6160 3 
932 1682 1162 3 
933 1682 1681 1 
934 1682 1898 3 
935 1898 1624 3 
936 1898 1897 1 
937 1624 1162 3 
938 1624 1623 1 
939 1624 1682 3 
940 1162 1898 3 
941 1162 1161 1 
942 1907 2373 2 
943 2406 2640 3 
944 2406 2405 1 
945 1854 2640 3 
946 1854 1853 1 
947 1854 2406 3 
948 1854 2408 3 
949 2408 2406 3 
950 2408 2407 1 
951 2640 2408 3 
952 2640 2639 1 
953 3161 4141 2 
954 3161 3162 1 
955 3910 3909 1 
956 3372 3910 3 
957 3908 3670 3 
958 3908 3907 1 
959 3908 3914 3 
960 4924 3622 3 
961 3622 3621 1 
962 3403 4641 2 
963 5394 4678 3 
964 4923 4924 1 
965 5144 5143 1 
966 5154 5144 3 
967 929 5877 2 
968 401 402 1 
969 181 401 2 
970 668 182 3 
971 668 667 1 
972 182 136 3 
973 182 181 1 
974 182 386 3 
975 136 668 3 
976 136 135 1 
977 136 386 3 
978 416 144 3 
979 416 415 1 
980 416 642 3 
981 642 144 3 
982 642 641 1 
983 642 6148 3 
984 953 1623 2 
985 415 421 2 
986 2662 2648 3 
987 2662 2661 1 
988 1938 2662 3 
989 1938 1937 1 
990 2648 1938 3 
991 2648 2647 1 
992 2656 2934 3 
993 2656 2655 1 
994 2656 3680 3 
995 3174 2656 3 
996 3174 3173 1 
997 3174 3680 3 
998 2934 3174 3 
999 2934 2933 1 
1000 3680 2934 3 
1001 3680 3679 1 
1002 3163 3173 2 
1003 3404 3670 3 
1004 3404 3403 1 
1005 3404 3908 3 
1006 3914 3404 3 
1007 3914 3913 1 
1008 3670 3914 3 
1009 3670 3669 1 
1010 5428 4418 3 
1011 5428 5427 1 
1012 4920 4418 3 
1013 4920 4919 1 
1014 4920 5428 3 
1015 4920 5402 3 
1016 4418 5402 3 
1017 4418 4417 1 
1018 5402 5428 3 
1019 5402 5401 1 
1020 4893 5153 2 
1021 5153 5154 1 
1022 4888 4878 3 
1023 4888 4887 1 
1024 4878 4400 3 
1025 4878 4877 1 
1026 4400 4888 3 
1027 4400 4399 1 
1028 4137 4403 2 
1029 5664 4138 3 
1030 4138 4137 1 
1031 4663 5405 2 
1032 171 5649 2 
1033 172 914 3 
1034 172 171 1 
1035 172 430 3 
1036 172 674 3 
1037 674 430 3 
1038 674 673 1 
1039 914 674 3 
1040 914 913 1 
1041 430 914 3 
1042 430 429 1 
1043 673 951 2 
1044 425 447 2 
1045 909 1691 2 
1046 1152 656 3 
1047 1152 1151 1 
1048 656 422 3 
1049 656 655 1 
1050 656 934 3 
1051 934 422 3 
1052 934 933 1 
1053 934 1152 3 
1054 422 1152 3 
1055 422 421 1 
1056 460 702 3 
1057 460 459 1 
1058 460 692 3 
1059 937 1207 2 
1060 937 938 1 
1061 2185 2193 2 
1062 2673 3165 2 
1063 2933 3649 2 
1064 3906 3164 3 
1065 3906 3905 1 
1066 3388 3906 3 
1067 3388 3387 1 
1068 3388 3666 3 
1069 3164 3666 3 
1070 3164 3163 1 
1071 3164 3388 3 
1072 3396 3912 3 
1073 3396 3395 1 
1074 3666 3906 3 
1075 3666 3665 1 
1076 3912 4172 3 
1077 3912 3911 1 
1078 4172 3396 3 
1079 4172 4171 1 
1080 4674 4168 3 
1081 4674 4673 1 
1082 4430 4168 3 
1083 4430 4429 1 
1084 4430 4674 3 
1085 4168 4428 3 
1086 4168 4167 1 
1087 4428 4674 3 
1088 4428 4427 1 
1089 4428 4430 3 
1090 4912 4700 3 
1091 4912 4911 1 
1092 4894 4652 3 
1093 4894 4893 1 
1094 4894 5618 3 
1095 5168 4894 3 
1096 5168 5167 1 
1097 5168 5618 3 
1098 4652 5168 3 
1099 4652 4651 1 
1100 5618 4652 3 
1101 5618 5617 1 
1102 4399 5617 2 
1103 5161 5401 2 
1104 5194 5193 1 
1105 5434 5194 3 
1106 5433 5434 1 
1107 5369 5433 2 
1108 5956 5444 3 
1109 5956 5955 1 
1110 5444 5660 3 
1111 5444 5443 1 
1112 5660 5956 3 
1113 5660 5659 1 
1114 5650 5658 3 
1115 5650 5649 1 
1116 6167 6189 2 
1117 690 5922 3 
1118 690 689 1 
1119 690 892 3 
1120 892 164 3 
1121 892 891 1 
1122 670 1178 3 
1123 670 669 1 
1124 1178 894 3 
1125 1178 1177 1 
1126 894 670 3 
1127 894 893 1 
1128 669 945 2 
1129 405 913 2 
1130 952 460 3 
1131 952 951 1 
1132 692 702 3 
1133 692 691 1 
1134 692 952 3 
1135 702 952 3 
1136 702 701 1 
1137 459 935 2 
1138 1197 2425 2 
1139 1197 1198 1 
1140 2425 2426 1 
1141 2426 1940 3 
1142 1940 1939 1 
1143 1447 1693 2 
1144 1688 2432 3 
1145 1688 1687 1 
1146 1706 1688 3 
1147 1706 1705 1 
1148 2432 1706 3 
1149 2432 2431 1 
1150 1947 1948 1 
1151 2422 2688 3 
1152 2422 2421 1 
1153 2688 2722 3 
1154 2688 2687 1 
1155 2687 2707 2 
1156 4696 3956 3 
1157 4696 4695 1 
1158 3956 4688 3 
1159 3956 3955 1 
1160 4688 3922 3 
1161 4688 4687 1 
1162 4688 4696 3 
1163 3922 3956 3 
1164 3922 3921 1 
1165 3922 4696 3 
1166 4429 4695 2 
1167 4167 4457 2 
1168 4199 4933 2 
1169 5183 5453 2 
1170 5425 5426 1 
1171 5425 5955 2 
1172 5670 5924 3 
1173 5670 5669 1 
1174 689 893 2 
1175 428 694 3 
1176 694 693 1 
1177 427 428 1 
1178 730 729 1 
1179 709 1461 2 
1180 936 682 3 
1181 936 935 1 
1182 710 936 3 
1183 710 709 1 
1184 672 936 3 
1185 672 671 1 
1186 672 710 3 
1187 682 672 3 
1188 682 681 1 
1189 682 710 3 
1190 671 921 2 
1191 1454 1453 1 
1192 1939 2205 2 
1193 916 915 1 
1194 1666 1454 3 
1195 1687 1949 2 
1196 3402 2900 3 
1197 2900 2899 1 
1198 3674 3673 1 
1199 3172 3674 3 
1200 4220 4672 3 
1201 4672 4671 1 
1202 3459 3957 2 
1203 3460 3459 1 
1204 3976 3460 3 
1205 4219 4693 2 
1206 4219 4220 1 
1207 3929 4667 2 
1208 3706 3724 3 
1209 3706 3705 1 
1210 3940 3706 3 
1211 3940 3939 1 
1212 4694 3686 3 
1213 4694 4693 1 
1214 4682 4212 3 
1215 4682 4681 1 
1216 4682 4694 3 
1217 4212 4694 3 
1218 4212 4211 1 
1219 3686 4212 3 
1220 3686 3685 1 
1221 3686 4682 3 
1222 3430 3930 3 
1223 3430 3429 1 
1224 3724 3940 3 
1225 3724 3723 1 
1226 4166 3430 3 
1227 4166 4165 1 
1228 5195 5196 1 
1229 5195 5219 2 
1230 5224 5223 1 
1231 5458 5224 3 
1232 5220 4460 3 
1233 5220 5219 1 
1234 4186 5218 3 
1235 4186 4185 1 
1236 4186 4460 3 
1237 4186 5220 3 
1238 5218 5220 3 
1239 5218 5217 1 
1240 4460 5218 3 
1241 4460 4459 1 
1242 5457 5458 1 
1243 5454 6222 3 
1244 5454 5453 1 
1245 5210 5454 3 
1246 5210 5209 1 
1247 6222 5210 3 
1248 6222 6221 1 
1249 5924 5672 3 
1250 5924 5923 1 
1251 5672 5670 3 
1252 5672 5671 1 
1253 5184 5183 1 
1254 5426 5184 3 
1255 194 193 1 
1256 196 194 3 
1257 209 729 2 
1258 453 923 2 
1259 5994 730 3 
1260 6197 6219 2 
1261 697 698 1 
1262 433 697 2 
1263 436 1180 3 
1264 436 435 1 
1265 1180 458 3 
1266 1180 1179 1 
1267 222 178 3 
1268 178 177 1 
1269 458 436 3 
1270 458 457 1 
1271 457 6199 2 
1272 681 961 2 
1273 2205 2206 1 
1274 1665 1666 1 
1275 1217 1941 2 
1276 1453 1665 2 
1277 1964 1720 3 
1278 1964 1963 1 
1279 1964 2206 3 
1280 1720 1719 1 
1281 1720 2206 3 
1282 1942 1964 3 
1283 1942 1941 1 
1284 1942 2206 3 
1285 2899 3673 2 
1286 3958 3946 3 
1287 3958 3957 1 
1288 2948 3958 3 
1289 2948 2947 1 
1290 2948 3450 3 
1291 2948 3946 3 
1292 3450 3958 3 
1293 3450 3449 1 
1294 3946 3450 3 
1295 3946 3945 1 
1296 3967 3977 2 
1297 3945 4671 2 
1298 3409 3497 2 
1299 3449 3941 2 
1300 3975 3976 1 
1301 3701 3975 2 
1302 3429 3693 2 
1303 4209 5451 2 
1304 4443 4444 1 
1305 3761 5441 2 
1306 3707 4443 2 
1307 5442 4210 3 
1308 5442 5441 1 
1309 4210 4698 3 
1310 4210 4209 1 
1311 4448 4210 3 
1312 4448 4447 1 
1313 4448 5442 3 
1314 4698 4448 3 
1315 4698 4697 1 
1316 4698 5442 3 
1317 4447 5217 2 
1318 4697 5457 2 
1319 4459 4707 2 
1320 5900 4704 3 
1321 5900 5899 1 
1322 5900 5954 3 
1323 5954 4980 3 
1324 5954 5953 1 
1325 4980 5900 3 
1326 4980 4979 1 
1327 5696 5230 3 
1328 5696 5695 1 
1329 5696 6240 3 
1330 5470 5696 3 
1331 5470 5469 1 
1332 5230 5470 3 
1333 5230 5229 1 
1334 5230 6240 3 
1335 6240 5470 3 
1336 6240 6239 1 
1337 424 423 1 
1338 179 461 2 
1339 461 462 1 
1340 5486 5676 3 
1341 5486 5485 1 
1342 6164 5486 3 
1343 6164 6163 1 
1344 923 924 1 
1345 479 480 1 
1346 924 920 3 
1347 920 919 1 
1348 6220 6219 1 
1349 228 6220 3 
1350 716 920 3 
1351 716 6220 3 
1352 200 698 3 
1353 200 716 3 
1354 200 924 3 
1355 6192 432 3 
1356 6192 6191 1 
1357 454 6192 3 
1358 454 453 1 
1359 698 924 3 
1360 698 920 3 
1361 432 454 3 
1362 432 431 1 
1363 199 200 1 
1364 199 1443 2 
1365 238 237 1 
1366 221 222 1 
1367 221 431 2 
1368 1462 1496 3 
1369 1462 1461 1 
1370 1422 1496 3 
1371 1422 1421 1 
1372 1422 1480 3 
1373 1422 1462 3 
1374 1480 1462 3 
1375 1480 1479 1 
1376 1496 1480 3 
1377 1496 1495 1 
1378 1714 6200 3 
1379 1714 1713 1 
1380 216 6200 3 
1381 216 215 1 
1382 216 1714 3 
1383 472 216 3 
1384 472 471 1 
1385 472 1714 3 
1386 6200 472 3 
1387 6200 6199 1 
1388 1713 1983 2 
1389 1225 1421 2 
1390 1213 1719 2 
1391 3225 3963 2 
1392 3968 3967 1 
1393 3926 3968 3 
1394 2946 2704 3 
1395 2946 2945 1 
1396 2946 3226 3 
1397 2704 3424 3 
1398 2704 2703 1 
1399 3226 2704 3 
1400 3226 3225 1 
1401 3226 3424 3 
1402 3424 2946 3 
1403 3424 3423 1 
1404 3421 3422 1 
1405 3421 3711 2 
1406 3702 3701 1 
1407 3422 3702 3 
1408 3465 3749 2 
1409 3466 3762 3 
1410 3466 3465 1 
1411 3762 4464 3 
1412 3762 3761 1 
1413 4988 4438 3 
1414 4988 4987 1 
1415 4474 4206 3 
1416 4474 4473 1 
1417 4474 4988 3 
1418 4464 3466 3 
1419 4464 4463 1 
1420 4438 4206 3 
1421 4438 4437 1 
1422 4438 4474 3 
1423 4206 4988 3 
1424 4206 4205 1 
1425 4981 5203 2 
1426 4508 4507 1 
1427 5204 5706 3 
1428 5204 5203 1 
1429 5204 5694 3 
1430 5204 5962 3 
1431 5685 5899 2 
1432 466 5464 3 
1433 466 465 1 
1434 5464 232 3 
1435 5464 5463 1 
1436 465 6239 2 
1437 5676 6164 3 
1438 5676 5675 1 
1439 480 464 3 
1440 464 463 1 
1441 463 971 2 
1442 227 228 1 
1443 227 993 2 
1444 699 1215 2 
1445 1196 966 3 
1446 1196 1195 1 
1447 1993 1994 1 
1448 1993 2729 2 
1449 1491 1735 2 
1450 1474 1478 3 
1451 1992 2472 3 
1452 2472 2471 1 
1453 1478 1477 1 
1454 1477 1991 2 
1455 1991 1992 1 
1456 2953 2954 1 
1457 2189 2953 2 
1458 3473 3474 1 
1459 3473 4193 2 
1460 4194 4198 3 
1461 4194 4193 1 
1462 4194 4208 3 
1463 4208 4198 3 
1464 4208 4207 1 
1465 4198 3960 3 
1466 4198 4197 1 
1467 3960 4194 3 
1468 3960 3959 1 
1469 3960 4208 3 
1470 3933 3959 2 
1471 4714 4982 3 
1472 4714 4713 1 
1473 4992 4714 3 
1474 4992 4991 1 
1475 4252 4508 3 
1476 4982 4992 3 
1477 4982 4981 1 
1478 4733 4734 1 
1479 4733 5025 2 
1480 5706 5694 3 
1481 5706 5705 1 
1482 232 466 3 
1483 232 231 1 
1484 231 5973 2 
1485 504 6238 3 
1486 504 503 1 
1487 6250 504 3 
1488 6250 6249 1 
1489 438 6238 3 
1490 438 437 1 
1491 438 504 3 
1492 438 6250 3 
1493 6238 6250 3 
1494 6238 6237 1 
1495 253 6235 2 
1496 498 732 3 
1497 498 497 1 
1498 494 6230 3 
1499 494 493 1 
1500 494 732 3 
1501 494 498 3 
1502 732 6230 3 
1503 732 731 1 
1504 6230 498 3 
1505 6230 6229 1 
1506 731 749 2 
1507 987 988 1 
1508 987 6229 2 
1509 988 260 3 
1510 476 972 3 
1511 476 750 3 
1512 734 1004 3 
1513 734 733 1 
1514 734 972 3 
1515 738 1196 3 
1516 738 737 1 
1517 958 1490 3 
1518 958 957 1 
1519 958 1202 3 
1520 1247 1475 2 
1521 211 957 2 
1522 1473 1474 1 
1523 3000 2736 3 
1524 3000 2999 1 
1525 2228 3000 3 
1526 2228 2227 1 
1527 2710 2990 3 
1528 2710 2709 1 
1529 2966 2710 3 
1530 2966 2965 1 
1531 2990 2966 3 
1532 2990 2989 1 
1533 2516 4004 3 
1534 2516 2515 1 
1535 4004 3468 3 
1536 4004 4003 1 
1537 3474 3980 3 
1538 3980 3979 1 
1539 3477 3721 2 
1540 4479 4713 2 
1541 4259 4721 2 
1542 4722 4990 3 
1543 4722 4721 1 
1544 5493 5494 1 
1545 4284 5222 3 
1546 4284 4283 1 
1547 4284 4722 3 
1548 4284 4990 3 
1549 3751 4015 2 
1550 4501 4991 2 
1551 5487 5991 2 
1552 242 5974 3 
1553 242 226 3 
1554 242 241 1 
1555 5974 226 3 
1556 5974 5973 1 
1557 236 242 3 
1558 236 5974 3 
1559 236 235 1 
1560 192 8 3 
1561 192 191 1 
1562 264 192 3 
1563 264 263 1 
1564 264 5720 3 
1565 5720 192 3 
1566 5720 5719 1 
1567 226 236 3 
1568 226 225 1 
1569 225 6025 2 
1570 8 264 3 
1571 8 7 1 
1572 8 5720 3 
1573 7 497 2 
1574 243 475 2 
1575 475 476 1 
1576 5 733 2 
1577 6051 6052 1 
1578 46 5730 3 
1579 11 6051 2 
1580 736 1224 3 
1581 736 735 1 
1582 1730 736 3 
1583 1730 1729 1 
1584 1224 1730 3 
1585 1224 1223 1 
1586 1729 2229 2 
1587 1945 2227 2 
1588 2736 2228 3 
1589 2736 2735 1 
1590 2791 3267 2 
1591 3468 2516 3 
1592 3468 3467 1 
1593 3735 3736 1 
1594 3467 3735 2 
1595 2210 3970 3 
1596 2210 2209 1 
1597 4990 5222 3 
1598 4990 4989 1 
1599 5222 4722 3 
1600 5222 5221 1 
1601 5750 5749 1 
1602 5250 5790 3 
1603 5250 5494 3 
1604 5494 5750 3 
1605 4752 5790 3 
1606 4752 4751 1 
1607 4224 5250 3 
1608 4224 4502 3 
1609 4224 5494 3 
1610 964 5488 3 
1611 5488 5487 1 
1612 14 6228 3 
1613 14 13 1 
1614 14 6226 3 
1615 489 519 2 
1616 5455 6223 2 
1617 33 501 2 
1618 24 474 3 
1619 24 23 1 
1620 24 6018 3 
1621 24 6014 3 
1622 6018 474 3 
1623 6018 6017 1 
1624 6014 6018 3 
1625 6014 6013 1 
1626 474 6014 3 
1627 474 473 1 
1628 473 525 2 
1629 247 5753 2 
1630 525 526 1 
1631 267 268 1 
1632 9 10 1 
1633 9 267 2 
1634 501 502 1 
1635 1012 782 3 
1636 1012 1011 1 
1637 1012 1030 3 
1638 1012 1276 3 
1639 1276 1030 3 
1640 1276 1275 1 
1641 782 1276 3 
1642 782 781 1 
1643 1030 782 3 
1644 1030 1029 1 
1645 269 270 1 
1646 485 1239 2 
1647 515 516 1 
1648 515 1263 2 
1649 781 1523 2 
1650 1239 1240 1 
1651 233 269 2 
1652 1259 1269 2 
1653 486 1242 3 
1654 486 485 1 
1655 1738 486 3 
1656 1738 1737 1 
1657 1021 1022 1 
1658 1242 1738 3 
1659 1242 1241 1 
1660 1245 1246 1 
1661 535 1021 2 
1662 1256 1250 3 
1663 1256 1255 1 
1664 509 1243 2 
1665 741 742 1 
1666 741 973 2 
1667 1019 1779 2 
1668 1033 1307 2 
1669 742 1236 3 
1670 1236 1235 1 
1671 1743 1744 1 
1672 1723 2253 2 
1673 1786 1008 3 
1674 1786 1785 1 
1675 2741 2742 1 
1676 2011 2741 2 
1677 1744 2024 3 
1678 2024 2023 1 
1679 1751 2769 2 
1680 2254 2280 3 
1681 2254 2786 3 
1682 2253 2254 1 
1683 2280 2279 1 
1684 2280 2492 3 
1685 2280 2786 3 
1686 1752 1751 1 
1687 2481 2482 1 
1688 2481 3017 2 
1689 3017 3018 1 
1690 2742 1752 3 
1691 2279 2509 2 
1692 2785 2786 1 
1693 1518 2492 3 
1694 1518 2254 3 
1695 1518 2786 3 
1696 2792 3268 3 
1697 2792 2791 1 
1698 2768 2792 3 
1699 2768 2767 1 
1700 3268 2768 3 
1701 3268 3267 1 
1702 1503 2761 2 
1703 2992 2778 3 
1704 2992 2991 1 
1705 2992 3002 3 
1706 2259 3011 2 
1707 2762 1504 3 
1708 2762 2761 1 
1709 2496 2536 3 
1710 2536 2535 1 
1711 2972 2242 3 
1712 2972 2971 1 
1713 2248 3012 3 
1714 2248 2247 1 
1715 2248 3448 3 
1716 2490 2248 3 
1717 2490 2489 1 
1718 2490 3448 3 
1719 2261 2771 2 
1720 3985 4257 2 
1721 3002 2778 3 
1722 3002 3001 1 
1723 3002 3006 3 
1724 4257 4258 1 
1725 3261 3545 2 
1726 2983 2997 2 
1727 2983 2984 1 
1728 2535 3001 2 
1729 2495 2496 1 
1730 2984 4010 3 
1731 3277 3278 1 
1732 4010 4009 1 
1733 3303 3304 1 
1734 3227 3303 2 
1735 2995 3009 2 
1736 3026 2798 3 
1737 3026 3025 1 
1738 3278 4258 3 
1739 3278 3522 3 
1740 3030 3756 3 
1741 3030 3029 1 
1742 3030 3278 3 
1743 3522 3521 1 
1744 3029 4023 2 
1745 4285 4286 1 
1746 3756 3004 3 
1747 3756 3755 1 
1748 2784 2783 1 
1749 2783 3269 2 
1750 3269 3270 1 
1751 3764 3778 3 
1752 3764 3763 1 
1753 3778 3768 3 
1754 3778 3777 1 
1755 3768 3764 3 