ITEM: TIMESTEP
88880
ITEM: NUMBER OF ENTRIES
8141
ITEM: BOX BOUNDS pp pp ff
0.0000000000000000e+00 7.2168784000000002e+01
0.0000000000000000e+00 7.2168784000000002e+01
0.0000000000000000e+00 1.2000000000000000e+01
ITEM: ENTRIES index c_1[1] c_1[2] c_1[3]
1 6022 248 3 
2 6022 6021 1 
3 34 248 3 
4 34 33 1 
5 34 6022 3 
6 248 12 3 
7 248 247 1 
8 266 265 1 
9 12 34 3 
10 12 11 1 
11 12 6022 3 
12 244 243 1 
13 33 501 2 
14 6002 244 3 
15 474 6014 3 
16 474 473 1 
17 24 474 3 
18 24 23 1 
19 24 6018 3 
20 24 6014 3 
21 5518 490 3 
22 5518 5517 1 
23 6014 6018 3 
24 6014 6013 1 
25 490 5754 3 
26 490 489 1 
27 6018 474 3 
28 6018 6017 1 
29 501 502 1 
30 489 519 2 
31 6052 748 3 
32 748 747 1 
33 1747 1757 2 
34 1748 1766 3 
35 1748 1747 1 
36 1724 1748 3 
37 1724 1723 1 
38 1724 2012 3 
39 1766 1724 3 
40 1766 1765 1 
41 1766 2012 3 
42 2012 1748 3 
43 2012 2011 1 
44 1723 2253 2 
45 2279 2509 2 
46 2791 3267 2 
47 2261 2771 2 
48 3262 3788 3 
49 3262 3261 1 
50 2992 2778 3 
51 2992 2991 1 
52 2992 3002 3 
53 2262 3262 3 
54 2262 2261 1 
55 2262 2518 3 
56 2518 3262 3 
57 2518 2517 1 
58 2518 3788 3 
59 3002 2778 3 
60 3002 3001 1 
61 3002 3006 3 
62 3006 2992 3 
63 3006 3005 1 
64 2778 3006 3 
65 2778 2777 1 
66 3788 2262 3 
67 3788 3787 1 
68 4726 3506 3 
69 4726 4725 1 
70 4504 4018 3 
71 4504 4503 1 
72 4504 4726 3 
73 4018 3506 3 
74 4018 4017 1 
75 4018 4726 3 
76 3543 3811 2 
77 3506 4504 3 
78 3506 3505 1 
79 6246 4488 3 
80 6246 6245 1 
81 4488 5238 3 
82 4488 4487 1 
83 5238 6246 3 
84 5238 5237 1 
85 6011 6021 2 
86 29 251 2 
87 6001 6002 1 
88 6001 6009 2 
89 5765 6013 2 
90 6012 5772 3 
91 6012 6011 1 
92 252 6012 3 
93 252 251 1 
94 252 5768 3 
95 521 1067 2 
96 1244 778 3 
97 1244 1243 1 
98 1042 1244 3 
99 1042 1041 1 
100 535 1021 2 
101 778 1042 3 
102 778 777 1 
103 1002 1020 3 
104 1002 1001 1 
105 1002 1758 3 
106 1758 1020 3 
107 1758 1757 1 
108 1020 536 3 
109 1020 1019 1 
110 536 1002 3 
111 536 535 1 
112 536 1758 3 
113 1522 1774 3 
114 1522 1521 1 
115 1522 1772 3 
116 2002 2486 3 
117 2002 2774 3 
118 2486 2485 1 
119 2486 2774 3 
120 2298 2526 3 
121 2298 2297 1 
122 2298 2774 3 
123 2526 2764 3 
124 2526 2525 1 
125 2271 2763 2 
126 2759 3251 2 
127 1519 2275 2 
128 2512 2530 3 
129 2512 2522 3 
130 2302 2512 3 
131 2777 3787 2 
132 2772 2530 3 
133 2772 2771 1 
134 2522 2532 3 
135 2522 2772 3 
136 2301 2302 1 
137 2301 2797 2 
138 3780 3779 1 
139 4011 4012 1 
140 3014 3544 3 
141 3014 3013 1 
142 3014 4028 3 
143 3014 4046 3 
144 4046 4028 3 
145 4046 4045 1 
146 3769 4503 2 
147 3502 3501 1 
148 3544 4046 3 
149 3544 3543 1 
150 3992 3502 3 
151 4028 3544 3 
152 4028 4027 1 
153 4523 5035 2 
154 4039 4277 2 
155 4735 4736 1 
156 4493 4735 2 
157 5069 5070 1 
158 17 18 1 
159 5768 5772 3 
160 5768 5767 1 
161 5768 6012 3 
162 5803 5804 1 
163 518 786 3 
164 518 517 1 
165 518 790 3 
166 5772 252 3 
167 5772 5771 1 
168 296 518 3 
169 296 295 1 
170 786 296 3 
171 786 785 1 
172 786 790 3 
173 790 296 3 
174 790 789 1 
175 545 553 2 
176 1772 1774 3 
177 1772 1771 1 
178 1282 1772 3 
179 1282 1281 1 
180 1282 1522 3 
181 1281 1541 2 
182 1774 1282 3 
183 1774 1773 1 
184 2764 2298 3 
185 2764 2763 1 
186 1773 2297 2 
187 1520 2296 3 
188 1520 1519 1 
189 1520 2818 3 
190 2314 1520 3 
191 2314 2313 1 
192 2314 2818 3 
193 2296 2314 3 
194 2296 2295 1 
195 2272 2271 1 
196 2818 2296 3 
197 2818 2817 1 
198 2532 2772 3 
199 2532 2531 1 
200 2531 2731 2 
201 2511 2512 1 
202 2511 2767 2 
203 2037 2527 2 
204 2527 2528 1 
205 1784 3252 3 
206 1784 1783 1 
207 3252 2282 3 
208 3252 3251 1 
209 2530 2532 3 
210 2530 2529 1 
211 3746 3745 1 
212 3746 4036 3 
213 4012 3770 3 
214 3803 3804 1 
215 3803 4051 2 
216 4288 5298 3 
217 3770 3769 1 
218 4282 4264 3 
219 4282 4281 1 
220 4282 4534 3 
221 4534 5036 3 
222 4534 4533 1 
223 5036 4282 3 
224 5036 5035 1 
225 4264 5036 3 
226 4264 4263 1 
227 4264 4534 3 
228 3991 3992 1 
229 3281 3282 1 
230 3281 3991 2 
231 4287 4288 1 
232 4005 4287 2 
233 4006 4042 3 
234 4006 4005 1 
235 3996 4006 3 
236 3996 3995 1 
237 4316 4790 3 
238 4790 4789 1 
239 4801 4802 1 
240 4315 4316 1 
241 4301 4315 2 
242 4276 4048 3 
243 4276 4275 1 
244 4500 4276 3 
245 4500 4499 1 
246 5277 5283 2 
247 4765 5537 2 
248 5780 542 3 
249 5780 5779 1 
250 5780 6030 3 
251 292 291 1 
252 20 1330 3 
253 5804 292 3 
254 1330 1329 1 
255 258 38 3 
256 1278 1268 3 
257 1278 1277 1 
258 1278 1760 3 
259 1278 1536 3 
260 1760 1536 3 
261 1760 1759 1 
262 1268 1760 3 
263 1268 1267 1 
264 1536 1268 3 
265 1536 1535 1 
266 1542 1792 3 
267 1542 1541 1 
268 1542 2308 3 
269 2308 1290 3 
270 2308 2307 1 
271 1792 2308 3 
272 1792 1791 1 
273 1290 1792 3 
274 1290 1289 1 
275 1290 1542 3 
276 1289 2283 2 
277 1778 1292 3 
278 1778 1777 1 
279 2284 1778 3 
280 2284 2283 1 
281 1292 2284 3 
282 1292 1291 1 
283 2563 2817 2 
284 2313 2775 2 
285 4025 4026 1 
286 4025 3745 2 
287 3804 4052 3 
288 3031 3309 2 
289 4803 5797 2 
290 5760 4804 3 
291 5760 5759 1 
292 5284 5296 3 
293 5284 5283 1 
294 5284 5760 3 
295 4804 5284 3 
296 4804 4803 1 
297 5296 4804 3 
298 5296 5295 1 
299 5296 5760 3 
300 5538 6048 3 
301 5538 5537 1 
302 5262 5538 3 
303 5262 5261 1 
304 5544 5318 3 
305 5318 5317 1 
306 70 798 3 
307 70 69 1 
308 70 72 3 
309 798 314 3 
310 798 797 1 
311 314 70 3 
312 314 313 1 
313 72 314 3 
314 72 71 1 
315 72 798 3 
316 1539 1791 2 
317 1301 1569 2 
318 2961 2962 1 
319 3291 3299 2 
320 3792 3292 3 
321 3792 3791 1 
322 3292 3310 3 
323 3292 3291 1 
324 3310 3792 3 
325 3310 3309 1 
326 3607 3608 1 
327 3607 3813 2 
328 3859 4075 2 
329 3859 3860 1 
330 3331 3567 2 
331 5043 5317 2 
332 353 5541 2 
333 329 330 1 
334 329 561 2 
335 313 559 2 
336 2316 1096 3 
337 1096 1095 1 
338 1823 2289 2 
339 1540 1572 3 
340 1540 1539 1 
341 1302 1540 3 
342 1302 1301 1 
343 1064 1572 3 
344 1064 1063 1 
345 1064 1540 3 
346 1064 1302 3 
347 1572 1302 3 
348 1572 1571 1 
349 2304 1314 3 
350 1063 1817 2 
351 1314 1313 1 
352 1799 2069 2 
353 1826 2070 3 
354 3086 2844 3 
355 3086 3085 1 
356 2306 1790 3 
357 2306 2305 1 
358 2306 3352 3 
359 1790 2058 3 
360 1790 1789 1 
361 1790 2354 3 
362 2562 3086 3 
363 2562 2561 1 
364 2562 3074 3 
365 2844 2562 3 
366 2844 2843 1 
367 2844 3074 3 
368 2809 2810 1 
369 3065 3325 2 
370 2788 4076 3 
371 2788 2787 1 
372 4076 3064 3 
373 4076 4075 1 
374 3584 3583 1 
375 3332 4588 3 
376 3332 3331 1 
377 3064 2788 3 
378 3064 3063 1 
379 4086 3332 3 
380 4086 4085 1 
381 4086 4588 3 
382 3776 3332 3 
383 3776 3775 1 
384 3776 4086 3 
385 4588 3776 3 
386 4588 4587 1 
387 3583 3599 2 
388 3322 3582 3 
389 3322 3321 1 
390 4291 4587 2 
391 3575 3815 2 
392 3579 3821 2 
393 3579 3580 1 
394 3568 4058 3 
395 3568 3567 1 
396 3568 4300 3 
397 4292 3568 3 
398 4292 4291 1 
399 4292 4300 3 
400 4058 4292 3 
401 4058 4057 1 
402 4300 4058 3 
403 4300 4299 1 
404 5819 6083 2 
405 5044 5302 3 
406 5044 5043 1 
407 5814 5044 3 
408 5814 5813 1 
409 5814 5830 3 
410 5830 5044 3 
411 5830 5829 1 
412 5302 5814 3 
413 5302 5301 1 
414 5302 5830 3 
415 5301 6087 2 
416 5542 5820 3 
417 5542 5541 1 
418 5567 5781 2 
419 5781 5782 1 
420 5552 5542 3 
421 5552 5551 1 
422 5559 6053 2 
423 5825 6063 2 
424 5794 5568 3 
425 5794 5793 1 
426 5794 5808 3 
427 5560 5808 3 
428 5560 5559 1 
429 5560 5794 3 
430 5808 5568 3 
431 5808 5807 1 
432 5568 5560 3 
433 5568 5567 1 
434 304 6082 3 
435 81 82 1 
436 81 563 2 
437 571 1559 2 
438 1560 1078 3 
439 1560 1559 1 
440 844 1560 3 
441 844 843 1 
442 1078 844 3 
443 1078 1077 1 
444 2581 2582 1 
445 2353 2354 1 
446 2291 2353 2 
447 2070 2069 1 
448 2070 3352 3 
449 2354 2582 3 
450 2354 3038 3 
451 2312 2311 1 
452 2582 2824 3 
453 2824 3038 3 
454 2046 2312 3 
455 2046 2582 3 
456 2058 2306 3 
457 2058 2057 1 
458 2058 3352 3 
459 2321 2857 2 
460 2045 2046 1 
461 2045 3043 2 
462 1846 2580 3 
463 2072 2071 1 
464 2338 2072 3 
465 3847 3829 2 
466 3343 3353 2 
467 3323 3775 2 
468 3830 3324 3 
469 3830 3829 1 
470 3324 3848 3 
471 3324 3323 1 
472 3816 4072 3 
473 3816 3815 1 
474 3816 4322 3 
475 3572 4072 3 
476 3572 3571 1 
477 3572 3816 3 
478 4309 4543 2 
479 3850 3822 3 
480 3850 3849 1 
481 3850 4610 3 
482 3835 4057 2 
483 4544 4798 3 
484 4544 4543 1 
485 4798 3836 3 
486 4798 4797 1 
487 3836 4544 3 
488 3836 3835 1 
489 5081 5333 2 
490 5316 6088 3 
491 6088 6087 1 
492 5340 5840 3 
493 5340 5339 1 
494 6072 5340 3 
495 6072 6071 1 
496 5610 74 3 
497 5610 5609 1 
498 5610 5816 3 
499 5610 6084 3 
500 5840 6072 3 
501 5840 5839 1 
502 5084 5340 3 
503 5084 5083 1 
504 5084 6072 3 
505 5084 5840 3 
506 5807 5839 2 
507 61 6071 2 
508 6081 6082 1 
509 97 331 2 
510 95 96 1 
511 95 6081 2 
512 82 564 3 
513 82 840 3 
514 840 839 1 
515 564 563 1 
516 564 840 3 
517 355 356 1 
518 337 355 2 
519 1092 1814 3 
520 1092 1091 1 
521 1092 1102 3 
522 1341 1342 1 
523 1341 1831 2 
524 847 848 1 
525 847 2077 2 
526 2063 2064 1 
527 817 2319 2 
528 2319 2320 1 
529 2074 1810 3 
530 2074 2073 1 
531 1812 1810 3 
532 1812 1811 1 
533 1812 2074 3 
534 1812 2090 3 
535 2823 2824 1 
536 2828 3604 3 
537 2828 2827 1 
538 2580 2579 1 
539 3044 2828 3 
540 3044 3043 1 
541 3604 3044 3 
542 3604 3603 1 
543 2858 3096 3 
544 2858 2857 1 
545 2337 2338 1 
546 2337 2827 2 
547 3336 2590 3 
548 3336 3335 1 
549 3346 3336 3 
550 3346 3345 1 
551 3094 3346 3 
552 3094 3093 1 
553 3094 3336 3 
554 3605 3819 2 
555 3848 3830 3 
556 3848 3847 1 
557 4082 3818 3 
558 4082 4081 1 
559 3612 4082 3 
560 3612 3611 1 
561 3818 3612 3 
562 3818 3817 1 
563 4322 3572 3 
564 4322 4321 1 
565 4072 4322 3 
566 4072 4071 1 
567 3822 4572 3 
568 3822 3821 1 
569 3822 4610 3 
570 4610 4572 3 
571 4610 4609 1 
572 4572 3850 3 
573 4572 4571 1 
574 3833 4571 2 
575 3833 3834 1 
576 4824 4886 3 
577 5346 4340 3 
578 5346 5345 1 
579 4604 5346 3 
580 4604 4603 1 
581 4340 4604 3 
582 4340 4339 1 
583 4823 4824 1 
584 5098 4836 3 
585 5098 5097 1 
586 5078 5098 3 
587 5078 5077 1 
588 5078 5334 3 
589 5090 5052 3 
590 5334 5098 3 
591 5334 5333 1 
592 4836 5078 3 
593 4836 4835 1 
594 4836 5334 3 
595 5083 5089 2 
596 6106 98 3 
597 6106 6105 1 
598 654 864 3 
599 654 653 1 
600 98 5620 3 
601 98 97 1 
602 115 857 2 
603 343 831 2 
604 1101 1637 2 
605 1637 1638 1 
606 1368 1596 3 
607 1342 1596 3 
608 1342 1860 3 
609 1336 1860 3 
610 1336 1596 3 
611 1336 1342 3 
612 1354 1108 3 
613 1354 1353 1 
614 1354 1834 3 
615 1834 1108 3 
616 1834 1833 1 
617 862 1354 3 
618 862 861 1 
619 862 1834 3 
620 1108 862 3 
621 1108 1107 1 
622 1596 1595 1 
623 1574 1586 3 
624 1574 1860 3 
625 848 1368 3 
626 848 1586 3 
627 1595 2099 2 
628 1335 1336 1 
629 1335 1809 2 
630 1810 2090 3 
631 1810 1809 1 
632 2090 2074 3 
633 2090 2089 1 
634 1811 2623 2 
635 2601 2609 2 
636 2109 2607 2 
637 2805 2806 1 
638 2805 3603 2 
639 2096 2366 3 
640 2095 2096 1 
641 2095 2591 2 
642 2366 2365 1 
643 3091 3335 2 
644 3092 3606 3 
645 3092 3091 1 
646 3606 3864 3 
647 3606 3605 1 
648 3864 3092 3 
649 3864 3863 1 
650 4342 4122 3 
651 4342 4822 3 
652 4342 4341 1 
653 4822 4346 3 
654 4822 4821 1 
655 4346 4342 3 
656 4346 4345 1 
657 4122 4822 3 
658 4122 4346 3 
659 4122 4121 1 
660 3360 3106 3 
661 3360 3359 1 
662 2584 3360 3 
663 2584 2583 1 
664 3106 2584 3 
665 3106 3105 1 
666 3106 3112 3 
667 4117 4341 2 
668 3112 2584 3 
669 3112 3111 1 
670 3112 3360 3 
671 3593 3863 2 
672 3111 3591 2 
673 3591 3592 1 
674 3611 3837 2 
675 3837 3838 1 
676 3834 4114 3 
677 4114 4113 1 
678 4854 5352 3 
679 4854 4853 1 
680 5352 5360 3 
681 5352 5351 1 
682 109 125 2 
683 4375 4376 1 
684 4375 5375 2 
685 4868 6140 3 
686 4868 4867 1 
687 4868 5586 3 
688 4868 5118 3 
689 5118 6140 3 
690 5118 5117 1 
691 5620 6106 3 
692 5620 5619 1 
693 370 654 3 
694 370 369 1 
695 370 616 3 
696 370 864 3 
697 864 616 3 
698 864 863 1 
699 616 654 3 
700 616 615 1 
701 89 90 1 
702 89 339 2 
703 615 1431 2 
704 90 116 3 
705 116 115 1 
706 586 832 3 
707 586 585 1 
708 1338 1114 3 
709 1338 1337 1 
710 1114 812 3 
711 1114 1113 1 
712 1114 1634 3 
713 1634 1338 3 
714 1634 1633 1 
715 1394 1870 3 
716 1394 1393 1 
717 1351 2127 2 
718 1850 2566 3 
719 2566 2565 1 
720 2602 1606 3 
721 2602 2601 1 
722 2344 2850 3 
723 2344 2343 1 
724 2344 2608 3 
725 2624 2344 3 
726 2624 2623 1 
727 2608 2624 3 
728 2608 2607 1 
729 2608 2850 3 
730 2850 2624 3 
731 2850 2849 1 
732 1836 1606 3 
733 1836 1835 1 
734 1836 2602 3 
735 1352 1820 3 
736 1352 1351 1 
737 1402 1352 3 
738 1402 1401 1 
739 1820 1402 3 
740 1820 1819 1 
741 1630 1836 3 
742 1630 1629 1 
743 1630 2602 3 
744 1606 1630 3 
745 1606 1605 1 
746 2854 2853 1 
747 3100 2854 3 
748 2815 2816 1 
749 3099 3100 1 
750 3084 2826 3 
751 3084 3083 1 
752 2826 2862 3 
753 2826 2825 1 
754 1867 1868 1 
755 1867 2371 2 
756 2862 3084 3 
757 2862 2861 1 
758 1857 3099 2 
759 1835 2115 2 
760 2363 2861 2 
761 2365 2595 2 
762 2595 2596 1 
763 2358 2870 3 
764 2870 2869 1 
765 3644 3844 3 
766 3644 3643 1 
767 3380 3644 3 
768 3380 3379 1 
769 3844 3380 3 
770 3844 3843 1 
771 3379 3895 2 
772 4121 4607 2 
773 3375 3883 2 
774 3861 3862 1 
775 3861 4345 2 
776 3594 3366 3 
777 3594 3593 1 
778 4124 3594 3 
779 4124 4123 1 
780 3334 3333 1 
781 3334 4124 3 
782 3334 3594 3 
783 3884 3124 3 
784 3884 3883 1 
785 2336 3884 3 
786 2336 2335 1 
787 2336 3874 3 
788 3874 3884 3 
789 3874 3873 1 
790 4608 4590 3 
791 4608 4607 1 
792 4590 4842 3 
793 4590 4589 1 
794 4842 4608 3 
795 4842 4841 1 
796 4570 4842 3 
797 4570 4569 1 
798 4570 4590 3 
799 4570 4608 3 
800 3376 4146 3 
801 3376 3375 1 
802 3124 2336 3 
803 3124 3123 1 
804 3124 3874 3 
805 3872 3871 1 
806 113 341 2 
807 1079 1080 1 
808 1079 1355 2 
809 877 5875 2 
810 5597 5598 1 
811 5597 5637 2 
812 889 1371 2 
813 1372 1371 1 
814 1601 1602 1 
815 1131 1139 2 
816 1605 1869 2 
817 1617 2855 2 
818 1590 2376 3 
819 1590 1589 1 
820 1862 1590 3 
821 1862 1861 1 
822 1849 1850 1 
823 1589 1849 2 
824 1132 3134 3 
825 1132 1131 1 
826 2372 1132 3 
827 2372 2371 1 
828 3134 2372 3 
829 3134 3133 1 
830 1858 1857 1 
831 1858 3340 3 
832 1858 2616 3 
833 2343 2369 2 
834 1847 2615 2 
835 1401 1591 2 
836 2611 3083 2 
837 2611 2612 1 
838 2612 3180 3 
839 1848 1847 1 
840 2596 1848 3 
841 2869 3117 2 
842 3397 3843 2 
843 3896 3140 3 
844 3896 3895 1 
845 3140 3398 3 
846 3140 3139 1 
847 3868 3140 3 
848 3868 3867 1 
849 3868 3896 3 
850 3852 3898 3 
851 3852 3851 1 
852 4146 3144 3 
853 4146 4145 1 
854 3144 3376 3 
855 3144 3143 1 
856 3625 3626 1 
857 3625 3851 2 
858 2865 3901 2 
859 3143 3641 2 
860 4870 4370 3 
861 4870 4869 1 
862 3626 4370 3 
863 3626 4870 3 
864 3626 4104 3 
865 4370 4104 3 
866 4370 4369 1 
867 4104 4870 3 
868 4104 4103 1 
869 4639 4669 2 
870 4120 5356 3 
871 4120 4119 1 
872 5356 5122 3 
873 5356 5355 1 
874 5122 4120 3 
875 5122 5121 1 
876 4362 4384 3 
877 4384 4383 1 
878 5626 5625 1 
879 4371 5625 2 
880 5611 5841 2 
881 5842 5841 1 
882 1080 852 3 
883 852 851 1 
884 342 102 3 
885 342 341 1 
886 342 878 3 
887 102 6086 3 
888 102 101 1 
889 102 878 3 
890 878 6086 3 
891 878 877 1 
892 6086 342 3 
893 6086 6085 1 
894 6120 5842 3 
895 1356 1106 3 
896 1356 1355 1 
897 1432 1356 3 
898 1432 1431 1 
899 1106 1432 3 
900 1106 1105 1 
901 5858 5857 1 
902 5598 5858 3 
903 1381 1382 1 
904 1381 1897 2 
905 895 1873 2 
906 1651 1652 1 
907 1651 1917 2 
908 1855 1899 2 
909 1856 1366 3 
910 1856 1855 1 
911 1140 1856 3 
912 1140 1139 1 
913 1140 2896 3 
914 1366 1140 3 
915 1366 1365 1 
916 1366 2896 3 
917 2896 1856 3 
918 2896 2895 1 
919 2903 3133 2 
920 2903 2904 1 
921 2390 2389 1 
922 2904 2390 3 
923 3668 2676 3 
924 3668 3667 1 
925 2658 3418 3 
926 2658 2657 1 
927 2658 3668 3 
928 3418 2676 3 
929 3418 3417 1 
930 3418 3668 3 
931 3371 3372 1 
932 3162 3370 3 
933 3370 3369 1 
934 2877 3897 2 
935 4924 3622 3 
936 3622 3621 1 
937 4923 4924 1 
938 4369 4869 2 
939 5394 4678 3 
940 4678 4677 1 
941 4397 5355 2 
942 4638 4882 3 
943 4638 4637 1 
944 4638 4864 3 
945 5114 4638 3 
946 5114 5113 1 
947 4882 5114 3 
948 4882 4881 1 
949 6116 5626 3 
950 5127 5361 2 
951 660 6150 3 
952 660 659 1 
953 660 5172 3 
954 660 6188 3 
955 144 6148 3 
956 144 143 1 
957 6148 416 3 
958 6148 6147 1 
959 1144 1430 3 
960 1144 1143 1 
961 1874 1900 3 
962 1874 1873 1 
963 1918 1874 3 
964 1918 1917 1 
965 1900 1918 3 
966 1900 1899 1 
967 1358 1874 3 
968 1358 1357 1 
969 1358 1918 3 
970 1358 1900 3 
971 1162 1898 3 
972 1162 1161 1 
973 1624 1162 3 
974 1624 1623 1 
975 1624 1682 3 
976 621 2173 2 
977 1898 1624 3 
978 1898 1897 1 
979 1907 2373 2 
980 2888 2872 3 
981 2888 2887 1 
982 3146 3130 3 
983 3146 3145 1 
984 3636 3146 3 
985 3636 3635 1 
986 3161 4141 2 
987 3161 3162 1 
988 3130 3636 3 
989 3130 3129 1 
990 5393 5394 1 
991 5154 5144 3 
992 5144 5143 1 
993 5631 5632 1 
994 5395 5631 2 
995 4138 4137 1 
996 5664 4138 3 
997 5431 5653 2 
998 5432 5888 3 
999 5432 5431 1 
1000 5634 5432 3 
1001 5634 5633 1 
1002 5888 5634 3 
1003 5888 5887 1 
1004 6150 5172 3 
1005 6150 6149 1 
1006 6188 6150 3 
1007 6188 6187 1 
1008 5172 6188 3 
1009 5172 5171 1 
1010 416 144 3 
1011 416 415 1 
1012 416 642 3 
1013 409 6187 2 
1014 185 1161 2 
1015 953 1623 2 
1016 939 2361 2 
1017 2148 1908 3 
1018 1908 1907 1 
1019 1895 2401 2 
1020 2655 3151 2 
1021 2402 2888 3 
1022 2402 2401 1 
1023 2872 2402 3 
1024 2872 2871 1 
1025 2656 2934 3 
1026 2656 2655 1 
1027 2656 3680 3 
1028 3174 2656 3 
1029 3174 3173 1 
1030 3174 3680 3 
1031 2934 3174 3 
1032 2934 2933 1 
1033 3886 2912 3 
1034 2912 2911 1 
1035 4893 5153 2 
1036 5153 5154 1 
1037 4878 4400 3 
1038 4878 4877 1 
1039 4657 4658 1 
1040 4657 5167 2 
1041 4400 4888 3 
1042 4400 4399 1 
1043 4399 5617 2 
1044 4888 4878 3 
1045 4888 4887 1 
1046 5161 5401 2 
1047 6168 122 3 
1048 6168 6167 1 
1049 122 5392 3 
1050 122 121 1 
1051 426 425 1 
1052 156 444 3 
1053 156 155 1 
1054 156 884 3 
1055 156 398 3 
1056 701 1173 2 
1057 940 2130 3 
1058 940 939 1 
1059 940 1176 3 
1060 2185 2193 2 
1061 2673 3165 2 
1062 3650 3649 1 
1063 3918 3650 3 
1064 2192 3186 3 
1065 2192 2191 1 
1066 2192 2674 3 
1067 2674 3186 3 
1068 2674 2673 1 
1069 2670 2192 3 
1070 2670 2669 1 
1071 2670 2674 3 
1072 3912 4172 3 
1073 3912 3911 1 
1074 4172 3396 3 
1075 4172 4171 1 
1076 3396 3912 3 
1077 3396 3395 1 
1078 3164 3666 3 
1079 3164 3163 1 
1080 3164 3388 3 
1081 3906 3164 3 
1082 3906 3905 1 
1083 3666 3906 3 
1084 3666 3665 1 
1085 3388 3906 3 
1086 3388 3387 1 
1087 3388 3666 3 
1088 4652 5168 3 
1089 4652 4651 1 
1090 4894 4652 3 
1091 4894 4893 1 
1092 4894 5618 3 
1093 5168 4894 3 
1094 5168 5167 1 
1095 5168 5618 3 
1096 5618 4652 3 
1097 5618 5617 1 
1098 5162 5940 3 
1099 5162 5161 1 
1100 5162 5440 3 
1101 5940 5914 3 
1102 5940 5939 1 
1103 5440 5940 3 
1104 5440 5439 1 
1105 5440 5914 3 
1106 5914 5162 3 
1107 5914 5913 1 
1108 5419 5939 2 
1109 6183 6184 1 
1110 670 1178 3 
1111 670 669 1 
1112 894 670 3 
1113 894 893 1 
1114 405 913 2 
1115 673 951 2 
1116 425 447 2 
1117 460 702 3 
1118 460 459 1 
1119 460 692 3 
1120 702 952 3 
1121 702 701 1 
1122 1934 1412 3 
1123 1934 1933 1 
1124 1706 1688 3 
1125 1706 1705 1 
1126 1688 2432 3 
1127 1688 1687 1 
1128 2432 1706 3 
1129 2432 2431 1 
1130 1687 1949 2 
1131 2949 2955 2 
1132 2197 2691 2 
1133 4167 4457 2 
1134 5183 5453 2 
1135 5184 5183 1 
1136 5426 5184 3 
1137 5454 6222 3 
1138 5454 5453 1 
1139 1178 894 3 
1140 1178 1177 1 
1141 669 945 2 
1142 693 1177 2 
1143 666 434 3 
1144 666 665 1 
1145 452 214 3 
1146 214 213 1 
1147 459 935 2 
1148 2426 1940 3 
1149 936 682 3 
1150 936 935 1 
1151 710 936 3 
1152 710 709 1 
1153 672 936 3 
1154 672 671 1 
1155 672 710 3 
1156 682 672 3 
1157 682 681 1 
1158 682 710 3 
1159 1447 1693 2 
1160 1453 1665 2 
1161 1950 2440 3 
1162 1950 1949 1 
1163 1966 1965 1 
1164 2926 2442 3 
1165 2926 1950 3 
1166 2926 2925 1 
1167 2900 2899 1 
1168 1663 1664 1 
1169 1663 2721 2 
1170 3402 2900 3 
1171 2899 3673 2 
1172 4672 4671 1 
1173 4220 4672 3 
1174 3460 3459 1 
1175 3976 3460 3 
1176 4219 4693 2 
1177 4219 4220 1 
1178 4163 4164 1 
1179 3939 4163 2 
1180 4682 4212 3 
1181 4682 4681 1 
1182 4682 4694 3 
1183 4694 3686 3 
1184 4694 4693 1 
1185 4212 4694 3 
1186 4212 4211 1 
1187 3686 4212 3 
1188 3686 3685 1 
1189 3686 4682 3 
1190 3929 4667 2 
1191 4166 3430 3 
1192 4166 4165 1 
1193 3930 4166 3 
1194 3930 3929 1 
1195 4444 4458 3 
1196 4458 4457 1 
1197 3430 3930 3 
1198 3430 3429 1 
1199 4710 4709 1 
1200 4199 4933 2 
1201 5224 5223 1 
1202 5458 5224 3 
1203 424 423 1 
1204 6218 424 3 
1205 423 5933 2 
1206 194 193 1 
1207 196 194 3 
1208 450 6198 3 
1209 450 449 1 
1210 6198 5960 3 
1211 6198 6197 1 
1212 5960 450 3 
1213 5960 5959 1 
1214 428 694 3 
1215 5994 730 3 
1216 730 729 1 
1217 694 693 1 
1218 453 923 2 
1219 454 6192 3 
1220 454 453 1 
1221 5993 5994 1 
1222 451 452 1 
1223 451 5993 2 
1224 427 428 1 
1225 6197 6219 2 
1226 433 697 2 
1227 434 680 3 
1228 434 433 1 
1229 434 1186 3 
1230 680 666 3 
1231 680 679 1 
1232 680 1186 3 
1233 1186 666 3 
1234 1186 1185 1 
1235 178 177 1 
1236 458 436 3 
1237 458 457 1 
1238 436 1180 3 
1239 436 435 1 
1240 1180 458 3 
1241 1180 1179 1 
1242 222 178 3 
1243 679 6175 2 
1244 709 1461 2 
1245 1940 1939 1 
1246 1720 1719 1 
1247 1720 2206 3 
1248 1964 1720 3 
1249 1964 1963 1 
1250 1964 2206 3 
1251 1666 1454 3 
1252 1454 1453 1 
1253 2171 2172 1 
1254 3401 3435 2 
1255 3401 3402 1 
1256 3946 3450 3 
1257 3946 3945 1 
1258 3450 3958 3 
1259 3450 3449 1 
1260 3958 3946 3 
1261 3958 3957 1 
1262 2948 3958 3 
1263 2948 2947 1 
1264 2948 3450 3 
1265 2948 3946 3 
1266 3967 3977 2 
1267 3190 3189 1 
1268 3459 3957 2 
1269 3449 3941 2 
1270 3928 3458 3 
1271 3928 3927 1 
1272 2446 2930 3 
1273 2446 3458 3 
1274 2446 3190 3 
1275 3458 3712 3 
1276 3458 3457 1 
1277 3712 3928 3 
1278 3712 3711 1 
1279 2930 3190 3 
1280 3945 4671 2 
1281 3975 3976 1 
1282 3738 3737 1 
1283 3974 3738 3 
1284 3702 3701 1 
1285 3422 3702 3 
1286 3701 3975 2 
1287 4211 4465 2 
1288 3707 4443 2 
1289 4209 5451 2 
1290 4443 4444 1 
1291 3429 3693 2 
1292 4448 4210 3 
1293 4448 4447 1 
1294 4448 5442 3 
1295 4698 4448 3 
1296 4698 4697 1 
1297 4698 5442 3 
1298 5442 4210 3 
1299 5442 5441 1 
1300 4210 4698 3 
1301 4210 4209 1 
1302 5457 5458 1 
1303 4697 5457 2 
1304 5195 5196 1 
1305 5195 5219 2 
1306 4433 5717 2 
1307 4958 4434 3 
1308 4958 4957 1 
1309 4958 5476 3 
1310 4447 5217 2 
1311 4469 4470 1 
1312 4469 4703 2 
1313 465 6239 2 
1314 923 924 1 
1315 6220 6219 1 
1316 924 920 3 
1317 698 924 3 
1318 698 920 3 
1319 200 698 3 
1320 200 716 3 
1321 200 924 3 
1322 920 919 1 
1323 228 6220 3 
1324 716 920 3 
1325 716 6220 3 
1326 697 698 1 
1327 238 237 1 
1328 221 222 1 
1329 221 431 2 
1330 950 238 3 
1331 457 6199 2 
1332 237 1493 2 
1333 6200 472 3 
1334 6200 6199 1 
1335 1422 1496 3 
1336 1422 1421 1 
1337 1422 1480 3 
1338 1422 1462 3 
1339 1462 1496 3 
1340 1462 1461 1 
1341 1496 1480 3 
1342 1496 1495 1 
1343 1480 1462 3 
1344 1480 1479 1 
1345 216 6200 3 
1346 216 215 1 
1347 216 1714 3 
1348 472 216 3 
1349 472 471 1 
1350 472 1714 3 
1351 1714 6200 3 
1352 1714 1713 1 
1353 1217 1941 2 
1354 1942 1964 3 
1355 1942 1941 1 
1356 1942 2206 3 
1357 1486 2236 3 
1358 1486 1485 1 
1359 1486 2730 3 
1360 1486 1736 3 
1361 1736 2730 3 
1362 1736 1735 1 
1363 2236 1736 3 
1364 2236 2235 1 
1365 2445 2446 1 
1366 2445 3207 2 
1367 3968 3967 1 
1368 2946 2704 3 
1369 2946 2945 1 
1370 2946 3226 3 
1371 3926 3968 3 
1372 3421 3422 1 
1373 3421 3711 2 
1374 3933 3959 2 
1375 3761 5441 2 
1376 4988 4438 3 
1377 4988 4987 1 
1378 4474 4206 3 
1379 4474 4473 1 
1380 4474 4988 3 
1381 4206 4988 3 
1382 4206 4205 1 
1383 4438 4206 3 
1384 4438 4437 1 
1385 4438 4474 3 
1386 5228 5236 3 
1387 5228 5227 1 
1388 4454 5228 3 
1389 4454 4453 1 
1390 5236 4454 3 
1391 5236 5235 1 
1392 5717 5718 1 
1393 466 5464 3 
1394 466 465 1 
1395 5464 232 3 
1396 5464 5463 1 
1397 232 466 3 
1398 232 231 1 
1399 209 729 2 
1400 480 464 3 
1401 227 228 1 
1402 227 993 2 
1403 464 463 1 
1404 7 497 2 
1405 949 950 1 
1406 6230 498 3 
1407 6230 6229 1 
1408 699 1215 2 
1409 1487 1495 2 
1410 1491 1735 2 
1411 2730 2236 3 
1412 2730 2729 1 
1413 2461 2462 1 
1414 2230 2462 3 
1415 1991 1992 1 
1416 1992 2472 3 
1417 1460 2216 3 
1418 1460 1459 1 
1419 1460 2462 3 
1420 2965 2969 2 
1421 2700 3472 3 
1422 2700 2699 1 
1423 2460 2700 3 
1424 2460 2459 1 
1425 3472 2460 3 
1426 3472 3471 1 
1427 2232 2460 3 
1428 2232 2231 1 
1429 2232 2700 3 
1430 2232 3472 3 
1431 2450 3208 3 
1432 2450 2449 1 
1433 2190 3984 3 
1434 2190 2450 3 
1435 2190 2189 1 
1436 3984 2450 3 
1437 3984 3983 1 
1438 3208 2190 3 
1439 3208 3984 3 
1440 3208 3207 1 
1441 3473 3474 1 
1442 3473 4193 2 
1443 3943 3944 1 
1444 4194 4198 3 
1445 4194 4193 1 
1446 4194 4208 3 
1447 4208 4198 3 
1448 4208 4207 1 
1449 3960 4194 3 
1450 3960 3959 1 
1451 3960 4208 3 
1452 3477 3721 2 
1453 4198 3960 3 
1454 4198 4197 1 
1455 3762 4464 3 
1456 3762 3761 1 
1457 3466 3762 3 
1458 3466 3465 1 
1459 4464 3466 3 
1460 4464 4463 1 
1461 4969 4987 2 
1462 4982 4992 3 
1463 4982 4981 1 
1464 4714 4982 3 
1465 4714 4713 1 
1466 4992 4714 3 
1467 4992 4991 1 
1468 4733 4734 1 
1469 4733 5025 2 
1470 231 5973 2 
1471 5246 5248 3 
1472 5181 5182 1 
1473 5181 6249 2 
1474 5182 4960 3 
1475 4960 4959 1 
1476 504 6238 3 
1477 504 503 1 
1478 438 6238 3 
1479 438 437 1 
1480 438 504 3 
1481 438 6250 3 
1482 6250 504 3 
1483 6250 6249 1 
1484 6238 6250 3 
1485 6238 6237 1 
1486 463 971 2 
1487 971 972 1 
1488 5982 508 3 
1489 5982 5981 1 
1490 254 5982 3 
1491 254 253 1 
1492 254 6026 3 
1493 6026 5982 3 
1494 6026 6025 1 
1495 988 260 3 
1496 260 259 1 
1497 260 476 3 
1498 987 988 1 
1499 987 6229 2 
1500 731 749 2 
1501 1478 1477 1 
1502 1474 1478 3 
1503 1477 1991 2 
1504 2216 1982 3 
1505 2216 2215 1 
1506 2216 2230 3 
1507 2229 2230 1 
1508 1473 1474 1 
1509 1465 1466 1 
1510 1465 1473 2 
1511 2710 2990 3 
1512 2710 2709 1 
1513 2990 2966 3 
1514 2990 2989 1 
1515 2966 2710 3 
1516 2966 2965 1 
1517 3980 3979 1 
1518 3979 3983 2 
1519 3474 3980 3 
1520 3491 3492 1 
1521 3491 4485 2 
1522 4259 4721 2 
1523 4990 5222 3 
1524 4990 4989 1 
1525 4722 4990 3 
1526 4722 4721 1 
1527 5222 4722 3 
1528 5222 5221 1 
1529 4284 5222 3 
1530 4284 4283 1 
1531 4284 4722 3 
1532 4284 4990 3 
1533 5248 5247 1 
1534 13 229 2 
1535 5487 5991 2 
1536 5974 226 3 
1537 5974 5973 1 
1538 242 5974 3 
1539 242 226 3 
1540 242 241 1 
1541 236 242 3 
1542 236 5974 3 
1543 236 235 1 
1544 226 236 3 
1545 226 225 1 
1546 5720 192 3 
1547 5720 5719 1 
1548 264 192 3 
1549 264 263 1 
1550 264 5720 3 
1551 192 8 3 
1552 192 191 1 
1553 8 264 3 
1554 8 7 1 
1555 8 5720 3 
1556 972 1004 3 
1557 1004 750 3 
1558 1004 1003 1 
1559 476 972 3 
1560 476 750 3 
1561 475 476 1 
1562 734 1004 3 
1563 734 733 1 
1564 734 972 3 
1565 243 475 2 
1566 750 734 3 
1567 750 749 1 
1568 5754 5518 3 
1569 5754 5753 1 
1570 6051 6052 1 
1571 11 6051 2 
1572 247 5753 2 
1573 6 5 1 
1574 1240 6 3 
1575 3 747 2 
1576 1223 1257 2 
1577 736 1224 3 
1578 736 735 1 
1579 1224 1730 3 
1580 1224 1223 1 
1581 1730 736 3 
1582 1730 1729 1 
1583 1729 2229 2 
1584 2751 2752 1 
1585 2255 2751 2 
1586 2752 2260 3 
1587 2260 2259 1 
1588 2259 3011 2 
1589 2223 3447 2 
1590 2991 3277 2 
1591 2515 2747 2 
1592 3492 3254 3 
1593 3812 3016 3 
1594 3812 3811 1 
1595 3798 3812 3 
1596 3798 3797 1 
1597 3016 3798 3 
1598 3016 3015 1 
1599 3505 3765 2 
1600 3504 4022 3 
1601 4235 4236 1 
1602 4235 4461 2 
1603 5493 5494 1 
1604 5763 6245 2 
1605 14 6228 3 
1606 14 13 1 
1607 14 6226 3 
1608 6228 5480 3 
1609 6228 6227 1 
1610 6226 5480 3 
1611 6226 6225 1 
1612 6226 6228 3 
1613 5480 14 3 
1614 5480 5479 1 
1615 5488 5487 1 
1616 964 5488 3 
1617 225 6025 2 
1618 5732 266 3 
1619 6016 520 3 
1620 6016 6015 1 
1621 5516 6016 3 
1622 5516 5515 1 
1623 1006 6224 3 
1624 1006 1005 1 
1625 1006 6008 3 
1626 249 5517 2 
1627 250 6008 3 
1628 250 249 1 
1629 250 1006 3 
1630 30 6016 3 
1631 30 29 1 
1632 30 5516 3 
1633 473 525 2 
1634 487 6041 2 
1635 46 5730 3 
1636 1276 1030 3 
1637 1276 1275 1 
1638 1030 782 3 
1639 1030 1029 1 
1640 5730 5729 1 
1641 525 526 1 
1642 1012 782 3 
1643 1012 1011 1 
1644 1012 1030 3 
1645 1012 1276 3 
1646 782 1276 3 
1647 782 781 1 
1648 1011 1483 2 
1649 1239 1240 1 
1650 485 1239 2 
1651 711 721 2 
1652 526 522 3 
1653 526 1022 3 
1654 233 269 2 
1655 270 522 3 
1656 270 768 3 
1657 270 526 3 
1658 764 310 3 
1659 781 1523 2 
1660 1510 1260 3 
1661 1510 1509 1 
1662 722 1510 3 
1663 722 721 1 
1664 1260 722 3 
1665 1260 1259 1 
1666 1021 1022 1 
1667 269 270 1 
1668 1013 1241 2 
1669 741 742 1 
1670 741 973 2 
1671 515 516 1 
1672 515 1263 2 
1673 509 1243 2 
1674 1019 1779 2 
1675 1770 1270 3 
1676 1245 1246 1 
1677 1000 1222 3 
1678 1000 999 1 
1679 1228 1000 3 
1680 1228 1227 1 
1681 1222 1228 3 
1682 1222 1221 1 
1683 1279 2019 2 
1684 1744 2024 3 
1685 2024 2023 1 
1686 1008 1280 3 
1687 1008 1007 1 
1688 1008 1508 3 
1689 1743 1744 1 
1690 1280 1786 3 
1691 1280 1279 1 
1692 1508 1280 3 
1693 1508 1507 1 
1694 1508 1786 3 
1695 2023 2293 2 
1696 2253 2254 1 
1697 2011 2741 2 
1698 2741 2742 1 
1699 1511 1512 1 
1700 1511 1743 2 
1701 1751 2769 2 
1702 1538 2506 3 
1703 2280 2279 1 
1704 2280 2492 3 
1705 2280 2786 3 
1706 2742 1752 3 
1707 1752 1751 1 
1708 2254 2280 3 
1709 2254 2786 3 
1710 1518 2492 3 
1711 1518 2254 3 
1712 1518 2786 3 
1713 2492 2506 3 
1714 2760 2759 1 
1715 2481 2482 1 
1716 2481 3017 2 
1717 2276 2018 3 
1718 2276 2275 1 
1719 2508 2276 3 
1720 2508 2507 1 
1721 2508 2754 3 
1722 3017 3018 1 
1723 2018 2508 3 
1724 2018 2017 1 
1725 2018 2754 3 
1726 2754 2276 3 
1727 2754 2753 1 
1728 3018 2760 3 
1729 3510 3010 3 
1730 3510 3509 1 
1731 3484 2998 3 
1732 3484 3483 1 
1733 3010 3986 3 
1734 3010 3009 1 
1735 2251 2489 2 
1736 3261 3545 2 
1737 2496 2536 3 
1738 2536 2535 1 
1739 3522 3521 1 
1740 3448 3012 3 
1741 3448 3447 1 
1742 3227 3303 2 
1743 3304 3550 3 
1744 3030 3756 3 
1745 3030 3029 1 
1746 3030 3278 3 
1747 4258 3522 3 
1748 3278 4258 3 
1749 3278 3522 3 
1750 3756 3004 3 
1751 3756 3755 1 