ITEM: TIMESTEP
52800
ITEM: NUMBER OF ENTRIES
7584
ITEM: BOX BOUNDS pp pp ff
0.0000000000000000e+00 7.2168784000000002e+01
0.0000000000000000e+00 7.2168784000000002e+01
0.0000000000000000e+00 1.2000000000000000e+01
ITEM: ENTRIES index c_1[1] c_1[2] c_1[3]
1 525 526 1 
2 473 525 2 
3 754 756 3 
4 748 747 1 
5 516 284 3 
6 6052 748 3 
7 1239 1240 1 
8 1021 1022 1 
9 535 1021 2 
10 485 1239 2 
11 1758 1020 3 
12 1758 1757 1 
13 1002 1020 3 
14 1002 1001 1 
15 1002 1758 3 
16 536 1002 3 
17 536 535 1 
18 536 1758 3 
19 1020 536 3 
20 1020 1019 1 
21 1786 1008 3 
22 1786 1785 1 
23 1280 1786 3 
24 1280 1279 1 
25 1747 1757 2 
26 2742 1752 3 
27 1752 1751 1 
28 2491 2492 1 
29 3224 2214 3 
30 2251 2489 2 
31 1767 1768 1 
32 3223 3224 1 
33 3002 2778 3 
34 3002 3001 1 
35 3002 3006 3 
36 2778 3006 3 
37 2778 2777 1 
38 2490 2248 3 
39 2490 2489 1 
40 2248 3012 3 
41 2248 2247 1 
42 3012 2490 3 
43 3012 3011 1 
44 3015 3525 2 
45 4983 4984 1 
46 4983 4253 2 
47 4462 4748 3 
48 4462 4461 1 
49 4276 4048 3 
50 4276 4275 1 
51 4500 4276 3 
52 4500 4499 1 
53 4724 4723 1 
54 4758 4724 3 
55 4515 4741 2 
56 245 246 1 
57 245 1005 2 
58 5765 6013 2 
59 6001 6002 1 
60 6001 6009 2 
61 6011 6021 2 
62 6014 6018 3 
63 6014 6013 1 
64 6018 474 3 
65 6018 6017 1 
66 24 474 3 
67 24 23 1 
68 24 6018 3 
69 24 6014 3 
70 474 6014 3 
71 474 473 1 
72 270 522 3 
73 270 768 3 
74 270 526 3 
75 522 521 1 
76 522 768 3 
77 526 522 3 
78 526 1022 3 
79 502 1022 3 
80 502 516 3 
81 768 1022 3 
82 284 283 1 
83 284 502 3 
84 258 38 3 
85 38 37 1 
86 1511 1512 1 
87 1511 1743 2 
88 1743 1744 1 
89 1512 534 3 
90 534 533 1 
91 1503 2761 2 
92 3256 3255 1 
93 2511 2512 1 
94 2511 2767 2 
95 3272 3034 3 
96 3272 3271 1 
97 3272 3538 3 
98 3264 3538 3 
99 3264 3263 1 
100 3264 3272 3 
101 3034 3264 3 
102 3034 3033 1 
103 3538 3034 3 
104 3538 3537 1 
105 3029 4023 2 
106 3316 2524 3 
107 3316 3315 1 
108 3316 3790 3 
109 4024 4023 1 
110 3790 3534 3 
111 3790 3789 1 
112 3269 3270 1 
113 2783 3269 2 
114 3315 4035 2 
115 3013 4513 2 
116 4012 3770 3 
117 4011 4012 1 
118 3770 3769 1 
119 4048 4500 3 
120 4048 4047 1 
121 4047 4499 2 
122 6246 4488 3 
123 6246 6245 1 
124 4488 5238 3 
125 4488 4487 1 
126 5004 4766 3 
127 5004 5003 1 
128 4766 5762 3 
129 4766 4765 1 
130 5515 5516 1 
131 5003 5515 2 
132 29 251 2 
133 5796 5795 1 
134 240 5796 3 
135 5772 252 3 
136 5772 5771 1 
137 5540 542 3 
138 5540 5539 1 
139 5540 5780 3 
140 17 18 1 
141 6012 5772 3 
142 6012 6011 1 
143 5768 5772 3 
144 5768 5767 1 
145 5768 6012 3 
146 759 777 2 
147 793 794 1 
148 1282 1772 3 
149 1282 1281 1 
150 1282 1522 3 
151 2773 2774 1 
152 794 290 3 
153 2271 2763 2 
154 2962 3256 3 
155 2961 2962 1 
156 3022 3021 1 
157 3496 3022 3 
158 3495 3496 1 
159 3271 3495 2 
160 3270 4024 3 
161 3033 4061 2 
162 3263 3535 2 
163 4264 5036 3 
164 4264 4263 1 
165 4264 4534 3 
166 4282 4264 3 
167 4282 4281 1 
168 4282 4534 3 
169 4037 4038 1 
170 4305 4306 1 
171 4517 4809 2 
172 4809 4810 1 
173 3805 3806 1 
174 4745 5021 2 
175 5033 5034 1 
176 5034 5988 3 
177 5988 5987 1 
178 542 6030 3 
179 542 541 1 
180 252 6012 3 
181 252 251 1 
182 252 5768 3 
183 6030 5540 3 
184 6030 6029 1 
185 5780 542 3 
186 5780 5779 1 
187 5780 6030 3 
188 20 1330 3 
189 1330 1329 1 
190 47 48 1 
191 47 517 2 
192 760 1054 3 
193 760 759 1 
194 1308 760 3 
195 1308 1307 1 
196 1054 1308 3 
197 1054 1053 1 
198 1542 1792 3 
199 1542 1541 1 
200 1542 2308 3 
201 1267 1549 2 
202 1792 2308 3 
203 1792 1791 1 
204 1290 1792 3 
205 1290 1289 1 
206 1290 1542 3 
207 2308 1290 3 
208 2308 2307 1 
209 2545 2546 1 
210 1321 2545 2 
211 2272 2271 1 
212 2563 2817 2 
213 2546 2272 3 
214 2281 2529 2 
215 3292 3291 1 
216 3310 3292 3 
217 4026 3746 3 
218 4026 4036 3 
219 4036 4035 1 
220 3746 3745 1 
221 3746 4036 3 
222 3309 3310 1 
223 3031 3309 2 
224 3559 3560 1 
225 3785 3786 1 
226 3785 4043 2 
227 4043 4044 1 
228 3312 3311 1 
229 3312 3804 3 
230 4052 4051 1 
231 4052 3312 3 
232 3804 4052 3 
233 4518 4772 3 
234 4518 4517 1 
235 4772 5024 3 
236 4772 4771 1 
237 4301 4315 2 
238 5332 5294 3 
239 5332 5331 1 
240 4567 5331 2 
241 4567 4568 1 
242 4014 5536 3 
243 4014 4013 1 
244 4014 5332 3 
245 4014 5294 3 
246 5536 5332 3 
247 5536 5535 1 
248 5294 5536 3 
249 5294 5293 1 
250 5032 5054 3 
251 5032 5031 1 
252 5254 5032 3 
253 5254 5253 1 
254 4558 5032 3 
255 4558 4557 1 
256 4558 5054 3 
257 4558 5254 3 
258 5054 5254 3 
259 5054 5053 1 
260 18 5788 3 
261 6055 6056 1 
262 59 6055 2 
263 5805 6043 2 
264 783 5777 2 
265 276 776 3 
266 776 775 1 
267 1532 1570 3 
268 1532 1531 1 
269 1532 2542 3 
270 1301 1569 2 
271 1333 2307 2 
272 1539 1791 2 
273 2328 2574 3 
274 2328 2327 1 
275 2289 2290 1 
276 1823 2289 2 
277 1797 2021 2 
278 2574 1828 3 
279 2574 2573 1 
280 1828 2328 3 
281 1828 1827 1 
282 1839 2043 2 
283 2315 2316 1 
284 1798 1797 1 
285 1322 2574 3 
286 1322 1321 1 
287 1322 2328 3 
288 1322 1828 3 
289 1795 2053 2 
290 3296 2264 3 
291 3296 3295 1 
292 3036 3296 3 
293 3036 3035 1 
294 2264 3036 3 
295 2264 2263 1 
296 3326 2812 3 
297 3326 3566 3 
298 3326 3325 1 
299 3566 2800 3 
300 3566 3565 1 
301 2812 3566 3 
302 2812 2800 3 
303 2812 2811 1 
304 2800 3326 3 
305 2800 2799 1 
306 3791 3792 1 
307 3305 3581 2 
308 3053 3559 2 
309 4085 4086 1 
310 3047 4085 2 
311 4801 4802 1 
312 4568 4768 3 
313 4768 4767 1 
314 4808 4812 3 
315 4808 4807 1 
316 4767 4783 2 
317 5814 5302 3 
318 5814 5813 1 
319 4574 5798 3 
320 4574 4573 1 
321 4573 5309 2 
322 329 330 1 
323 329 561 2 
324 327 328 1 
325 104 6096 3 
326 104 6028 3 
327 104 6082 3 
328 6076 6075 1 
329 6076 6082 3 
330 6028 6076 3 
331 6028 6096 3 
332 6096 6076 3 
333 5806 6054 3 
334 5806 5805 1 
335 354 5806 3 
336 354 353 1 
337 300 76 3 
338 300 299 1 
339 300 324 3 
340 562 300 3 
341 562 561 1 
342 6054 354 3 
343 6054 6053 1 
344 60 560 3 
345 60 59 1 
346 60 6056 3 
347 560 66 3 
348 560 559 1 
349 84 590 3 
350 84 83 1 
351 590 6094 3 
352 590 589 1 
353 66 60 3 
354 66 65 1 
355 66 328 3 
356 69 589 2 
357 313 559 2 
358 71 799 2 
359 70 798 3 
360 70 69 1 
361 70 72 3 
362 72 314 3 
363 72 71 1 
364 72 798 3 
365 798 314 3 
366 798 797 1 
367 314 70 3 
368 314 313 1 
369 1302 1540 3 
370 1302 1301 1 
371 1540 1572 3 
372 1540 1539 1 
373 1064 1572 3 
374 1064 1063 1 
375 1064 1540 3 
376 1064 1302 3 
377 2332 1334 3 
378 2332 2331 1 
379 1572 1302 3 
380 1572 1571 1 
381 1334 2054 3 
382 1334 1333 1 
383 2054 2332 3 
384 2054 2053 1 
385 1562 1798 3 
386 1840 2852 3 
387 1840 1839 1 
388 1826 2070 3 
389 2070 2069 1 
390 3056 2330 3 
391 3056 3055 1 
392 2330 2594 3 
393 2330 2329 1 
394 2594 3056 3 
395 2594 2593 1 
396 2809 2810 1 
397 2035 3587 2 
398 3607 3608 1 
399 3607 3813 2 
400 3322 3582 3 
401 3322 3321 1 
402 3582 4312 3 
403 3582 3581 1 
404 3062 3582 3 
405 3062 3061 1 
406 3062 4312 3 
407 3062 3322 3 
408 4312 3322 3 
409 4312 4311 1 
410 4815 4816 1 
411 3568 4058 3 
412 3568 3567 1 
413 3568 4300 3 
414 4058 4292 3 
415 4058 4057 1 
416 4300 4058 3 
417 4300 4299 1 
418 4292 3568 3 
419 4292 4291 1 
420 4292 4300 3 
421 4816 4310 3 
422 4310 4309 1 
423 4853 4854 1 
424 5044 5814 3 
425 5044 5043 1 
426 6061 6062 1 
427 6088 6087 1 
428 5316 6088 3 
429 5302 5044 3 
430 5302 5301 1 
431 5315 5316 1 
432 5043 5317 2 
433 63 5557 2 
434 5560 5808 3 
435 5560 5559 1 
436 5560 5794 3 
437 5794 5568 3 
438 5794 5793 1 
439 5794 5808 3 
440 5808 5568 3 
441 5808 5807 1 
442 5568 5560 3 
443 5568 5567 1 
444 6027 6028 1 
445 6027 6079 2 
446 6049 6050 1 
447 76 562 3 
448 76 75 1 
449 103 104 1 
450 103 335 2 
451 75 6093 2 
452 83 307 2 
453 1069 1327 2 
454 1070 1564 3 
455 1070 1069 1 
456 1846 2580 3 
457 1845 1846 1 
458 1825 1845 2 
459 1825 1826 1 
460 3351 3352 1 
461 3044 2828 3 
462 3044 3043 1 
463 2828 3604 3 
464 2828 2827 1 
465 3604 3044 3 
466 3604 3603 1 
467 2071 2311 2 
468 2072 2071 1 
469 2338 2072 3 
470 2337 2338 1 
471 2805 2806 1 
472 2805 3603 2 
473 2810 2036 3 
474 2036 2035 1 
475 3067 3321 2 
476 3847 3829 2 
477 3848 3830 3 
478 3848 3847 1 
479 3324 3848 3 
480 3324 3323 1 
481 3830 3324 3 
482 3830 3829 1 
483 91 5327 2 
484 4339 4340 1 
485 64 63 1 
486 6062 64 3 
487 5821 5822 1 
488 5822 5838 3 
489 324 76 3 
490 324 323 1 
491 324 562 3 
492 336 822 3 
493 336 335 1 
494 822 316 3 
495 822 821 1 
496 316 336 3 
497 316 315 1 
498 1328 1090 3 
499 1328 1327 1 
500 1086 1328 3 
501 1086 1085 1 
502 1090 1086 3 
503 1090 1089 1 
504 1091 1103 2 
505 1083 1084 1 
506 1083 1563 2 
507 847 848 1 
508 847 2077 2 
509 1097 2565 2 
510 2823 2824 1 
511 2367 2368 1 
512 2359 2367 2 
513 2815 2816 1 
514 3037 3095 2 
515 3297 3619 2 
516 3606 3864 3 
517 3606 3605 1 
518 3864 3092 3 
519 3864 3863 1 
520 3089 3345 2 
521 3092 3606 3 
522 3092 3091 1 
523 3090 3089 1 
524 3822 4572 3 
525 3822 3821 1 
526 3822 4610 3 
527 4572 3850 3 
528 4572 4571 1 
529 4610 4572 3 
530 4610 4609 1 
531 3833 4571 2 
532 3833 3834 1 
533 77 78 1 
534 77 823 2 
535 628 1148 3 
536 627 628 1 
537 81 82 1 
538 81 563 2 
539 2134 1620 3 
540 595 1107 2 
541 1620 1619 1 
542 82 564 3 
543 82 840 3 
544 840 839 1 
545 2077 2078 1 
546 842 841 1 
547 1851 1852 1 
548 1600 1599 1 
549 2320 1600 3 
550 1599 2831 2 
551 2082 2081 1 
552 2816 2082 3 
553 2095 2096 1 
554 2095 2591 2 
555 3084 2826 3 
556 3084 3083 1 
557 2826 2862 3 
558 2826 2825 1 
559 2862 3084 3 
560 2862 2861 1 
561 2611 2612 1 
562 2611 3083 2 
563 2363 2861 2 
564 2351 2357 2 
565 2357 2358 1 
566 3337 3338 1 
567 3091 3335 2 
568 4338 3090 3 
569 3593 3863 2 
570 4569 4575 2 
571 3850 3822 3 
572 3850 3849 1 
573 3850 4610 3 
574 4341 4342 1 
575 4117 4118 1 
576 4117 4341 2 
577 4342 4822 3 
578 4342 4346 3 
579 5135 5347 2 
580 1148 1147 1 
581 5598 5858 3 
582 6144 5616 3 
583 6144 6143 1 
584 5616 906 3 
585 5616 5615 1 
586 906 6144 3 
587 906 905 1 
588 653 1147 2 
589 1597 1619 2 
590 1605 1869 2 
591 1869 1870 1 
592 1849 1850 1 
593 1606 1630 3 
594 1606 1605 1 
595 2128 2136 3 
596 2128 2127 1 
597 1836 1606 3 
598 1836 1835 1 
599 2092 2128 3 
600 2092 2091 1 
601 1630 1836 3 
602 1630 1629 1 
603 1589 1849 2 
604 2136 2092 3 
605 2136 2135 1 
606 1618 2128 3 
607 1618 1617 1 
608 1618 2092 3 
609 1618 2136 3 
610 2825 3339 2 
611 2366 2365 1 
612 2096 2366 3 
613 2365 2595 2 
614 2342 2864 3 
615 2342 2341 1 
616 2342 2364 3 
617 2364 2864 3 
618 2364 2363 1 
619 2364 2894 3 
620 2864 2894 3 
621 2864 2863 1 
622 2894 2342 3 
623 2894 2893 1 
624 2854 2853 1 
625 3100 2854 3 
626 3861 3862 1 
627 3862 3624 3 
628 3624 3623 1 
629 3365 4365 2 
630 4570 4842 3 
631 4570 4569 1 
632 4570 4590 3 
633 4570 4608 3 
634 4842 4608 3 
635 4842 4841 1 
636 4590 4842 3 
637 4590 4589 1 
638 4608 4590 3 
639 4608 4607 1 
640 3626 4370 3 
641 3626 4870 3 
642 3626 4104 3 
643 4870 4370 3 
644 4870 4869 1 
645 4104 4870 3 
646 4104 4103 1 
647 4370 4104 3 
648 4370 4369 1 
649 4121 4122 1 
650 4121 4607 2 
651 3875 3876 1 
652 3875 4589 2 
653 4821 4822 1 
654 4596 4595 1 
655 361 362 1 
656 347 5863 2 
657 654 864 3 
658 654 653 1 
659 370 654 3 
660 370 369 1 
661 370 616 3 
662 370 864 3 
663 878 6086 3 
664 6086 102 3 
665 6086 6085 1 
666 616 654 3 
667 616 615 1 
668 2093 2895 2 
669 2361 2362 1 
670 2372 1132 3 
671 2372 2371 1 
672 3134 2372 3 
673 3134 3133 1 
674 1132 3134 3 
675 1132 1131 1 
676 1617 2855 2 
677 2362 1642 3 
678 1642 1641 1 
679 3874 3884 3 
680 3874 3873 1 
681 3884 3124 3 
682 3884 3883 1 
683 3371 3372 1 
684 2336 3884 3 
685 2336 2335 1 
686 2336 3874 3 
687 3124 2336 3 
688 3124 3123 1 
689 3124 3874 3 
690 2335 3123 2 
691 3851 3852 1 
692 3625 3626 1 
693 3625 3851 2 
694 4369 4869 2 
695 4103 4115 2 
696 5864 5863 1 
697 5344 5343 1 
698 342 6086 3 
699 342 341 1 
700 102 342 3 
701 102 101 1 
702 124 6114 3 
703 124 123 1 
704 124 128 3 
705 390 124 3 
706 390 389 1 
707 6114 390 3 
708 6114 6113 1 
709 128 6114 3 
710 128 127 1 
711 128 390 3 
712 864 616 3 
713 864 863 1 
714 1431 1432 1 
715 615 1431 2 
716 141 143 2 
717 1372 1371 1 
718 6142 1372 3 
719 133 134 1 
720 1144 1143 1 
721 622 1144 3 
722 1395 1649 2 
723 1137 1138 1 
724 1137 1375 2 
725 2903 3133 2 
726 2903 2904 1 
727 1641 2395 2 
728 2904 2390 3 
729 3146 3130 3 
730 3146 3145 1 
731 3613 4633 2 
732 3621 4421 2 
733 4116 4422 3 
734 4116 4115 1 
735 5356 5122 3 
736 5356 5355 1 
737 4422 3614 3 
738 4422 4421 1 
739 3614 4116 3 
740 3614 3613 1 
741 4120 5356 3 
742 4120 4119 1 
743 5122 4120 3 
744 5122 5121 1 
745 4397 5355 2 
746 5631 5632 1 
747 153 154 1 
748 153 4645 2 
749 5916 5624 3 
750 5916 5915 1 
751 121 122 1 
752 121 123 2 
753 902 132 3 
754 902 901 1 
755 902 6122 3 
756 6141 6142 1 
757 367 368 1 
758 367 6141 2 
759 1136 1135 1 
760 1134 1136 3 
761 416 144 3 
762 416 415 1 
763 416 642 3 
764 621 622 1 
765 621 2173 2 
766 1650 1649 1 
767 1376 1375 1 
768 414 1376 3 
769 1937 1938 1 
770 2129 2175 2 
771 2648 2662 3 
772 2662 2661 1 
773 1363 3373 2 
774 2632 2416 3 
775 2632 2631 1 
776 2888 2872 3 
777 2888 2887 1 
778 2872 2402 3 
779 2872 2871 1 
780 2402 2888 3 
781 2402 2401 1 
782 3370 3369 1 
783 3162 3370 3 
784 3161 4141 2 
785 3161 3162 1 
786 2878 2877 1 
787 4396 4634 3 
788 4395 4396 1 
789 4387 4388 1 
790 4387 4395 2 
791 4634 4633 1 
792 4407 4408 1 
793 4407 4411 2 
794 5121 5143 2 
795 4851 4881 2 
796 4662 5396 3 
797 4662 4661 1 
798 4662 4676 3 
799 4662 5148 3 
800 5395 5631 2 
801 5148 4676 3 
802 5148 5147 1 
803 5396 5148 3 
804 5396 5395 1 
805 4676 5396 3 
806 4676 4675 1 
807 5910 5624 3 
808 5910 5909 1 
809 5910 5916 3 
810 5393 5394 1 
811 5624 5128 3 
812 5624 5623 1 
813 5128 5916 3 
814 5128 5127 1 
815 5128 5910 3 
816 6168 5392 3 
817 5392 5391 1 
818 415 421 2 
819 151 152 1 
820 151 641 2 
821 2130 1644 3 
822 2130 2129 1 
823 1908 1907 1 
824 2148 1908 3 
825 1894 1922 3 
826 1894 1893 1 
827 1700 1894 3 
828 1700 1699 1 
829 1922 1700 3 
830 1922 1921 1 
831 2871 2907 2 
832 2933 3649 2 
833 3649 3650 1 
834 2908 2664 3 
835 2908 2907 1 
836 3163 3173 2 
837 4142 3900 3 
838 4142 4141 1 
839 3900 2914 3 
840 3900 3899 1 
841 3666 3906 3 
842 3666 3665 1 
843 2914 4142 3 
844 2914 2913 1 
845 3164 3666 3 
846 3164 3163 1 
847 3164 3388 3 
848 3906 3164 3 
849 3906 3905 1 
850 4412 4411 1 
851 3665 4147 2 
852 3707 3708 1 
853 3390 4412 3 
854 4393 5131 2 
855 3378 4134 3 
856 5154 5144 3 
857 5144 5143 1 
858 5409 5410 1 
859 5409 5427 2 
860 5394 4678 3 
861 4678 4677 1 
862 4661 4929 2 
863 4675 4887 2 
864 4399 5617 2 
865 5617 5618 1 
866 5642 404 3 
867 5642 5641 1 
868 404 5926 3 
869 404 403 1 
870 5926 5642 3 
871 5926 5925 1 
872 892 164 3 
873 892 891 1 
874 690 5922 3 
875 690 689 1 
876 690 892 3 
877 5922 892 3 
878 5922 5921 1 
879 164 5922 3 
880 164 163 1 
881 164 690 3 
882 6167 6168 1 
883 6167 6189 2 
884 673 951 2 
885 2393 2394 1 
886 2394 1886 3 
887 3170 2908 3 
888 3170 3169 1 
889 2664 3170 3 
890 2664 2663 1 
891 2663 2683 2 
892 2159 2421 2 
893 2159 2160 1 
894 2900 2899 1 
895 2899 3673 2 
896 4153 4154 1 
897 4430 4168 3 
898 4430 4429 1 
899 4430 4674 3 
900 4168 4428 3 
901 4168 4167 1 
902 4428 4674 3 
903 4428 4427 1 
904 4428 4430 3 
905 4134 4133 1 
906 4947 4948 1 
907 4921 4922 1 
908 4921 4947 2 
909 4390 5370 3 
910 4390 4389 1 
911 4390 5416 3 
912 5166 4390 3 
913 5166 5165 1 
914 5370 5166 3 
915 5370 5369 1 
916 5370 5416 3 
917 5416 5166 3 
918 5416 5415 1 
919 5660 5956 3 
920 5660 5659 1 
921 5956 5444 3 
922 5956 5955 1 
923 171 5649 2 
924 163 6181 2 
925 448 652 3 
926 448 447 1 
927 946 448 3 
928 946 945 1 
929 652 946 3 
930 652 651 1 
931 452 214 3 
932 214 213 1 
933 425 447 2 
934 655 6213 2 
935 1454 1453 1 
936 1886 1885 1 
937 1665 1666 1 
938 1453 1665 2 
939 1666 1454 3 
940 2183 2413 2 
941 2185 2193 2 
942 2186 2185 1 
943 2684 2902 3 
944 2684 2683 1 
945 2684 3392 3 
946 2198 2684 3 
947 2198 2197 1 
948 3392 2198 3 
949 3392 3391 1 
950 2902 2198 3 
951 2902 2901 1 
952 2902 3392 3 
953 3402 2900 3 
954 2674 3186 3 
955 2674 2673 1 
956 2192 3186 3 
957 2192 2191 1 
958 2192 2674 3 
959 2670 2192 3 
960 2670 2669 1 
961 2670 2674 3 
962 3186 2670 3 
963 3186 3185 1 
964 2422 2688 3 
965 2422 2421 1 
966 2901 2937 2 
967 3172 3674 3 
968 4167 4457 2 
969 4674 4168 3 
970 4674 4673 1 
971 4429 4695 2 
972 4423 4961 2 
973 5458 5224 3 
974 4913 5165 2 
975 5415 5673 2 
976 5673 5674 1 
977 5413 5659 2 
978 5210 6222 3 
979 5453 5454 1 
980 6222 6221 1 
981 6138 5406 3 
982 5406 5405 1 
983 5978 6190 3 
984 5978 5977 1 
985 174 5978 3 
986 174 173 1 
987 6190 174 3 
988 6190 6189 1 
989 5993 5994 1 
990 451 452 1 
991 451 5993 2 
992 436 1180 3 
993 436 435 1 
994 458 436 3 
995 458 457 1 
996 1180 458 3 
997 1180 1179 1 
998 439 665 2 
999 183 691 2 
1000 651 5943 2 
1001 921 922 1 
1002 671 921 2 
1003 1701 1963 2 
1004 2927 2928 1 
1005 1935 2927 2 
1006 2928 2186 3 
1007 4164 4450 3 
1008 4672 4671 1 
1009 4450 4449 1 
1010 4220 4672 3 
1011 3694 4956 3 
1012 3694 3693 1 
1013 3694 3934 3 
1014 3694 3932 3 
1015 3429 3693 2 
1016 5201 5202 1 
1017 4683 4945 2 
1018 5457 5458 1 
1019 5224 5223 1 
1020 3937 4185 2 
1021 4185 4186 1 
1022 4697 5457 2 
1023 3938 4414 3 
1024 3938 3937 1 
1025 3938 5160 3 
1026 4414 4914 3 
1027 4414 4413 1 
1028 5209 5210 1 
1029 4914 3938 3 
1030 4914 4913 1 
1031 4914 5160 3 
1032 5674 5936 3 
1033 5160 4414 3 
1034 5160 5159 1 
1035 5936 5935 1 
1036 5183 5453 2 
1037 5723 5724 1 
1038 5723 6221 2 
1039 5964 6174 3 
1040 5964 5963 1 
1041 6174 5206 3 
1042 6174 6173 1 
1043 5938 5964 3 
1044 5938 5937 1 
1045 5938 6174 3 
1046 423 5933 2 
1047 5671 5672 1 
1048 5206 5964 3 
1049 5206 5205 1 
1050 5206 5938 3 
1051 221 222 1 
1052 222 178 3 
1053 178 177 1 
1054 457 6199 2 
1055 6199 6200 1 
1056 1217 1941 2 
1057 1964 1720 3 
1058 1964 1963 1 
1059 1720 1719 1 
1060 1942 1964 3 
1061 1942 1941 1 
1062 2195 2196 1 
1063 2195 2207 2 
1064 3201 3202 1 
1065 2959 2960 1 
1066 2959 3201 2 
1067 3202 2924 3 
1068 2924 2923 1 
1069 3661 3927 2 
1070 4163 4164 1 
1071 3939 4163 2 
1072 3933 3959 2 
1073 3975 3976 1 
1074 4686 4716 3 
1075 4716 4715 1 
1076 4956 3932 3 
1077 4956 4955 1 
1078 3932 3934 3 
1079 3932 3931 1 
1080 3934 4956 3 
1081 3934 3933 1 
1082 4685 4686 1 
1083 4215 4437 2 
1084 4161 5199 2 
1085 5202 4710 3 
1086 4710 4709 1 
1087 4210 4698 3 
1088 4210 4209 1 
1089 4432 4934 3 
1090 5724 5714 3 
1091 5967 6173 2 
1092 198 197 1 
1093 462 198 3 
1094 461 462 1 
1095 6164 5486 3 
1096 6164 6163 1 
1097 5676 6164 3 
1098 5676 5675 1 
1099 923 924 1 
1100 1470 1216 3 
1101 1470 1469 1 
1102 1216 1458 3 
1103 1216 1215 1 
1104 720 968 3 
1105 720 719 1 
1106 968 1710 3 
1107 968 967 1 
1108 1710 720 3 
1109 1710 1709 1 
1110 1716 1204 3 
1111 1716 1715 1 
1112 1684 1716 3 
1113 1684 1683 1 
1114 1204 1684 3 
1115 1204 1203 1 
1116 2973 2974 1 
1117 3431 3432 1 
1118 2196 2208 3 
1119 2196 2702 3 
1120 2196 3432 3 
1121 2208 2207 1 
1122 2208 3432 3 
1123 2208 2702 3 
1124 2445 2446 1 
1125 2445 3207 2 
1126 2460 3472 3 
1127 2460 2459 1 
1128 3459 3957 2 
1129 3473 3474 1 
1130 3473 4193 2 
1131 3976 3460 3 
1132 3460 3459 1 
1133 4198 3960 3 
1134 4198 4197 1 
1135 4194 4198 3 
1136 4194 4193 1 
1137 4194 4208 3 
1138 4208 4198 3 
1139 4208 4207 1 
1140 3960 4194 3 
1141 3960 3959 1 
1142 3960 4208 3 
1143 4211 4465 2 
1144 4466 5452 3 
1145 4466 4465 1 
1146 5452 5200 3 
1147 5452 5451 1 
1148 5200 4466 3 
1149 5200 5199 1 
1150 4226 4218 3 
1151 4226 4225 1 
1152 4218 4446 3 
1153 4218 4217 1 
1154 4225 4935 2 
1155 4209 5451 2 
1156 4479 4713 2 
1157 4203 4205 2 
1158 5714 5713 1 
1159 5464 232 3 
1160 5464 5463 1 
1161 232 466 3 
1162 232 231 1 
1163 466 5464 3 
1164 466 465 1 
1165 7 497 2 
1166 463 971 2 
1167 228 6220 3 
1168 455 1469 2 
1169 1725 1726 1 
1170 1459 1709 2 
1171 3208 2190 3 
1172 3208 3984 3 
1173 3208 3207 1 
1174 3984 2450 3 
1175 3984 3983 1 
1176 2450 3208 3 
1177 2450 2449 1 
1178 2190 3984 3 
1179 2190 2450 3 
1180 2190 2189 1 
1181 3979 3983 2 
1182 3462 3482 3 
1183 3462 3461 1 
1184 4202 3462 3 
1185 4202 4201 1 
1186 3482 4202 3 
1187 3482 3481 1 
1188 3714 3713 1 
1189 3944 3714 3 
1190 4969 4987 2 
1191 4015 4016 1 
1192 4446 4226 3 
1193 4446 4445 1 
1194 4480 4260 3 
1195 4480 4479 1 
1196 4970 4480 3 
1197 4970 4969 1 
1198 4260 4970 3 
1199 4260 4259 1 
1200 4982 4992 3 
1201 4982 4981 1 
1202 5995 5996 1 
1203 231 5973 2 
1204 6000 5456 3 
1205 6000 5999 1 
1206 4998 6000 3 
1207 4998 4997 1 
1208 2 4998 3 
1209 2 1 1 
1210 2 6000 3 
1211 2 5456 3 
1212 6025 6026 1 
1213 5456 4998 3 
1214 5456 5455 1 
1215 971 972 1 
1216 988 260 3 
1217 1004 750 3 
1218 1004 1003 1 
1219 734 1004 3 
1220 734 733 1 
1221 734 972 3 
1222 260 259 1 
1223 260 476 3 
1224 476 972 3 
1225 750 734 3 
1226 750 749 1 
1227 987 988 1 
1228 987 6229 2 
1229 1196 966 3 
1230 1196 1195 1 
1231 990 738 3 
1232 990 989 1 
1233 990 1196 3 
1234 738 1196 3 
1235 738 737 1 
1236 966 738 3 
1237 966 965 1 
1238 966 990 3 
1239 217 1951 2 
1240 469 737 2 
1241 1730 736 3 
1242 1730 1729 1 
1243 1993 1994 1 
1244 1993 2729 2 
1245 2229 2230 1 
1246 1729 2229 2 
1247 1491 1735 2 
1248 1253 1981 2 
1249 1232 1492 3 
1250 1232 1231 1 
1251 1232 2246 3 
1252 1254 1232 3 
1253 1254 1253 1 
1254 1254 2246 3 
1255 2246 1492 3 
1256 2246 2245 1 
1257 2216 1982 3 
1258 2216 2215 1 
1259 1994 2240 3 
1260 1718 2240 3 
1261 1718 1994 3 
1262 1492 1254 3 
1263 1492 1491 1 
1264 1982 1460 3 
1265 1982 1981 1 
1266 1982 2462 3 
1267 2240 2239 1 
1268 1995 2745 2 
1269 2745 2746 1 
1270 2746 1996 3 
1271 1996 1995 1 
1272 3453 3454 1 
1273 4016 4232 3 
1274 4232 4231 1 
1275 4711 4712 1 
1276 4251 4711 2 
1277 4251 4252 1 
1278 4231 4751 2 
1279 4259 4721 2 
1280 5244 5243 1 
1281 4736 5244 3 
1282 5233 5509 2 
1283 13 229 2 
1284 14 6228 3 
1285 14 13 1 
1286 14 6226 3 
1287 5974 226 3 
1288 5974 5973 1 
1289 226 236 3 
1290 226 225 1 
1291 242 5974 3 
1292 242 226 3 
1293 242 241 1 
1294 236 242 3 
1295 236 5974 3 
1296 236 235 1 
1297 4997 5729 2 
1298 45 46 1 
1299 45 5999 2 
1300 5455 6223 2 
1301 5981 6007 2 
1302 259 753 2 
1303 753 754 1 
1304 234 233 1 
1305 6 5 1 
1306 723 989 2 
1307 1240 6 3 
1308 1717 1718 1 
1309 2472 2471 1 
1310 1992 2472 3 
1311 1538 2506 3 
1312 2506 2505 1 
1313 2223 3447 2 
1314 3447 3448 1 
1315 3970 2748 3 
1316 3970 3969 1 
1317 4254 4253 1 
1318 4984 4254 3 
1319 4530 4462 3 
1320 4530 4529 1 
1321 4748 4530 3 
1322 4748 4747 1 
1323 4976 4975 1 
1324 5500 4976 3 
1325 4235 4236 1 
1326 4235 4461 2 
1327 4757 4758 1 
1328 4283 4975 2 
1329 5504 4752 3 
1330 5504 5503 1 
1331 4752 5790 3 
1332 4752 4751 1 
1333 5790 5504 3 
1334 5790 5789 1 
1335 6228 5480 3 
1336 6228 6227 1 
1337 5480 14 3 
1338 5480 5479 1 
1339 6226 5480 3 
1340 6226 6225 1 
1341 6226 6228 3 
1342 6002 244 3 
1343 6224 250 3 
1344 6224 6223 1 
1345 6008 6224 3 
1346 6008 6007 1 
1347 244 243 1 
1348 520 30 3 
1349 520 519 1 
1350 6016 520 3 
1351 6016 6015 1 
1352 30 6016 3 
1353 30 29 1 
1354 764 310 3 
1355 310 309 1 
1356 249 5517 2 
1357 250 6008 3 
1358 250 249 1 
1359 250 1006 3 
1360 501 502 1 
1361 756 755 1 
1362 233 269 2 
1363 269 270 1 
1364 1011 1483 2 
1365 1737 1738 1 
1366 755 1499 2 
1367 515 516 1 
1368 711 721 2 
1369 509 1243 2 
1370 1500 1524 3 
1371 1500 1499 1 
1372 4 1500 3 
1373 4 3 1 
1374 4 1750 3 
1375 4 1524 3 
1376 1524 1750 3 
1377 1524 1523 1 
1378 1750 1500 3 
1379 1750 1749 1 
1380 486 485 1 
1381 1242 486 3 
1382 1279 2019 2 
1383 1508 1280 3 
1384 1508 1507 1 
1385 1508 1786 3 
1386 1008 1280 3 
1387 1008 1007 1 
1388 1008 1508 3 
1389 1241 1242 1 
1390 1019 1779 2 
1391 297 1749 2 
1392 1013 1241 2 
1393 1748 1766 3 
1394 1748 1747 1 
1395 1766 1724 3 
1396 1766 1765 1 
1397 1766 2012 3 
1398 2012 1748 3 
1399 2012 2011 1 
1400 1724 1748 3 
1401 1724 1723 1 
1402 1724 2012 3 
1403 1507 2225 2 
1404 1517 1518 1 
1405 1271 1517 2 
1406 1751 2769 2 
1407 1723 2253 2 
1408 2253 2254 1 
1409 2254 2280 3 
1410 2254 2786 3 
1411 1518 2492 3 
1412 2280 2279 1 
1413 2280 2492 3 
1414 2280 2786 3 
1415 2009 2505 2 
1416 2507 2755 2 
1417 2252 2732 3 
1418 2252 2251 1 
1419 2252 2762 3 
1420 2495 2496 1 
1421 3017 3018 1 
1422 2732 1504 3 
1423 2732 2731 1 
1424 2732 2762 3 
1425 2214 2213 1 
1426 2481 2482 1 
1427 2481 3017 2 
1428 2992 2778 3 
1429 2992 2991 1 
1430 2992 3002 3 
1431 3006 2992 3 
1432 3006 3005 1 
1433 3986 3510 3 
1434 3986 3985 1 
1435 2017 2513 2 
1436 3510 3010 3 
1437 3510 3509 1 
1438 3010 3986 3 
1439 3010 3009 1 
1440 3227 3303 2 
1441 2995 3009 2 
1442 3303 3304 1 
1443 2514 3484 3 
1444 2514 2513 1 
1445 3484 2998 3 
1446 3484 3483 1 
1447 2791 3267 2 
1448 2998 2514 3 
1449 2998 2997 1 
1450 3518 3246 3 
1451 3246 3245 1 
1452 3759 3767 2 
1453 3304 3550 3 
1454 3550 3549 1 
1455 3030 3756 3 
1456 3030 3029 1 
1457 3756 3004 3 
1458 3756 3755 1 
1459 3004 3030 3 
1460 3004 3003 1 
1461 3991 3992 1 
1462 3502 3501 1 
1463 3992 3502 3 
1464 3527 3528 1 
1465 3527 3777 2 
1466 4514 4513 1 
1467 4017 4285 2 
1468 3504 4022 3 
1469 4018 3506 3 
1470 4018 4017 1 
1471 4018 4726 3 
1472 4504 4018 3 
1473 4504 4503 1 
1474 4504 4726 3 
1475 3812 3016 3 
1476 3812 3811 1 
1477 4022 4021 1 
1478 3506 4504 3 
1479 3506 3505 1 
1480 3505 3765 2 
1481 3798 3812 3 
1482 3798 3797 1 
1483 3016 3798 3 
1484 3016 3015 1 
1485 3769 4503 2 
1486 4228 4227 1 
1487 4271 4743 2 
1488 4749 4750 1 
1489 4749 5045 2 
1490 4285 4286 1 
1491 4238 4228 3 
1492 4245 4529 2 
1493 4250 4249 1 
1494 4750 4250 3 
1495 4244 4243 1 
1496 4020 4244 3 
1497 4289 4497 2 
1498 4243 4495 2 
1499 4509 4727 2 
1500 4275 5525 2 
1501 5242 4742 3 
1502 5242 5241 1 
1503 4261 4267 2 
1504 5984 5242 3 
1505 5984 5983 1 
1506 4999 5237 2 
1507 4776 4510 3 
1508 4776 4775 1 
1509 4510 5530 3 
1510 4510 4509 1 
1511 4742 4762 3 
1512 4742 4741 1 
1513 4742 5984 3 
1514 4775 5011 2 
1515 5526 5738 3 
1516 5526 5525 1 
1517 5526 5744 3 
1518 5738 4494 3 
1519 5738 5737 1 
1520 4494 5744 3 
1521 4494 4493 1 
1522 4494 5526 3 
1523 5744 5738 3 
1524 5744 5743 1 
1525 5481 5482 1 
1526 5011 5012 1 
1527 5249 5250 1 
1528 5249 5481 2 
1529 5530 4776 3 
1530 5530 5529 1 
1531 4496 4996 3 
1532 4496 4495 1 
1533 4781 5529 2 
1534 5013 5014 1 
1535 4773 5013 2 
1536 5508 4994 3 
1537 5507 5508 1 
1538 27 28 1 
1539 27 6033 2 
1540 5255 5747 2 
1541 1006 6224 3 
1542 1006 1005 1 
1543 1006 6008 3 
1544 6038 6037 1 
1545 5784 6038 3 
1546 6034 500 3 
1547 6034 6033 1 
1548 500 16 3 
1549 500 499 1 
1550 16 6034 3 
1551 16 15 1 
1552 5731 5732 1 
1553 5783 5795 2 
1554 5783 5784 1 
1555 5770 5512 3 
1556 5770 5769 1 
1557 5512 6020 3 
1558 5512 5511 1 
1559 512 511 1 
1560 512 274 3 
1561 512 5766 3 
1562 5766 5765 1 
1563 5766 6242 3 
1564 6010 6009 1 
1565 6010 5766 3 
1566 274 273 1 
1567 274 6010 3 
1568 34 248 3 
1569 34 33 1 
1570 34 6022 3 
1571 12 34 3 
1572 12 11 1 
1573 12 6022 3 
1574 309 513 2 
1575 6022 248 3 
1576 6022 6021 1 
1577 22 512 3 
1578 22 274 3 
1579 22 6242 3 
1580 6242 6010 3 
1581 488 26 3 
1582 488 487 1 
1583 26 256 3 
1584 26 25 1 
1585 256 488 3 
1586 256 255 1 
1587 763 764 1 
1588 257 6241 2 
1589 257 258 1 
1590 6241 6242 1 
1591 33 501 2 
1592 6051 6052 1 
1593 11 6051 2 
1594 521 1067 2 
1595 1067 1068 1 
1596 787 1029 2 
1597 3 747 2 
1598 767 768 1 
1599 767 1043 2 
1600 1276 1030 3 
1601 1276 1275 1 
1602 1030 782 3 
1603 1030 1029 1 
1604 778 1042 3 
1605 778 777 1 
1606 1244 778 3 
1607 1244 1243 1 
1608 1042 1244 3 
1609 1042 1041 1 
1610 1038 772 3 
1611 1038 1037 1 
1612 1032 1038 3 
1613 1032 1031 1 
1614 772 1032 3 
1615 772 771 1 
1616 319 1545 2 
1617 1525 1765 2 
1618 2024 2023 1 
1619 1744 2024 3 
1620 2741 2742 1 
1621 2011 2741 2 
1622 2770 2294 3 
1623 2770 2769 1 
1624 2266 2770 3 
1625 2266 2265 1 
1626 2294 2266 3 
1627 2294 2293 1 
1628 2274 2266 3 
1629 2274 2273 1 
1630 2274 2294 3 
1631 2274 2770 3 
1632 2503 2504 1 
1633 2503 2739 2 
1634 2785 2786 1 
1635 2525 2785 2 
1636 2504 2740 3 
1637 2504 2982 3 
1638 2740 2739 1 
1639 2740 2982 3 
1640 2982 2981 1 
1641 2762 1504 3 
1642 2762 2761 1 
1643 1504 2252 3 
1644 1504 1503 1 
1645 1519 2275 2 
1646 2531 2731 2 
1647 3985 4257 2 
1648 4257 4258 1 
1649 2768 2792 3 
1650 2768 2767 1 
1651 3261 3545 2 
1652 2518 3262 3 
1653 2518 2517 1 
1654 2518 3788 3 
1655 3268 2768 3 
1656 3268 3267 1 
1657 2792 3268 3 
1658 2792 2791 1 
1659 3788 2262 3 
1660 3788 3787 1 
1661 2262 3262 3 
1662 2262 2261 1 
1663 2262 2518 3 
1664 3262 3788 3 
1665 3262 3261 1 
1666 2524 3534 3 
1667 2524 2523 1 
1668 2524 3790 3 
1669 3534 3316 3 
1670 3534 3533 1 
1671 3277 3278 1 
1672 3522 3521 1 
1673 4258 3522 3 
1674 3549 3779 2 
1675 2784 2783 1 
1676 3287 3521 2 
1677 3290 2784 3 
1678 3778 3768 3 
1679 3778 3777 1 
1680 3768 3764 3 
1681 3768 3767 1 
1682 3764 3778 3 
1683 3764 3763 1 
1684 4028 3544 3 
1685 4028 4027 1 
1686 3503 3504 1 
1687 4286 4514 3 
1688 4046 4028 3 
1689 4046 4045 1 
1690 3526 3525 1 
1691 3544 4046 3 
1692 3544 3543 1 
1693 3014 3544 3 
1694 3014 3013 1 
1695 3014 4028 3 
1696 3014 4046 3 
1697 3512 3526 3 
1698 3511 3512 1 
1699 3543 3811 2 
1700 4523 5035 2 
1701 4266 4272 3 
1702 4266 4265 1 
1703 4266 4270 3 
1704 4278 4266 3 
1705 4278 4277 1 
1706 4056 4055 1 
1707 4019 4020 1 
1708 4788 4246 3 
1709 4788 4787 1 
1710 4274 4788 3 
1711 4274 4273 1 
1712 4274 4526 3 
1713 4246 4526 3 
1714 4246 4245 1 
1715 4246 4274 3 
1716 4526 4788 3 
1717 4526 4525 1 
1718 4516 4780 3 
1719 4516 4515 1 
1720 4262 4516 3 
1721 4262 4261 1 
1722 4780 4262 3 
1723 4780 4779 1 
1724 4032 4262 3 
1725 4032 4031 1 
1726 4032 4780 3 
1727 4032 4516 3 
1728 5238 6246 3 
1729 5238 5237 1 
1730 5277 5278 1 
1731 5277 5283 2 
1732 4774 5022 3 
1733 4774 4773 1 
1734 4774 5016 3 
1735 5016 4520 3 
1736 5016 5015 1 
1737 5016 5022 3 
1738 4520 4774 3 
1739 4520 4519 1 
1740 5022 4520 3 
1741 5022 5021 1 
1742 5015 5519 2 
1743 5545 5546 1 
1744 5002 4754 3 
1745 5002 5001 1 
1746 5002 5290 3 
1747 4746 5002 3 
1748 4746 4745 1 
1749 4746 5290 3 
1750 5261 5987 2 
1751 4765 5537 2 
1752 5761 6231 2 
1753 5762 5004 3 
1754 5762 5761 1 
1755 15 499 2 