ITEM: TIMESTEP
21120
ITEM: NUMBER OF ENTRIES
5020
ITEM: BOX BOUNDS pp pp ff
0.0000000000000000e+00 7.2168784000000002e+01
0.0000000000000000e+00 7.2168784000000002e+01
0.0000000000000000e+00 1.2000000000000000e+01
ITEM: ENTRIES index c_1[1] c_1[2] c_1[3]
1 6009 6010 1 
2 247 5753 2 
3 6242 6241 1 
4 233 269 2 
5 269 270 1 
6 525 526 1 
7 757 758 1 
8 1011 1012 1 
9 1483 1484 1 
10 1485 1486 1 
11 1501 1502 1 
12 1763 1764 1 
13 1765 1766 1 
14 1723 1724 1 
15 1723 2253 2 
16 2245 2246 1 
17 1525 1526 1 
18 2762 1504 3 
19 2762 2761 1 
20 1504 2252 3 
21 1504 1503 1 
22 2252 2732 3 
23 2252 2251 1 
24 2252 2762 3 
25 2495 2496 1 
26 2732 1504 3 
27 2732 2731 1 
28 2732 2762 3 
29 3255 3256 1 
30 2778 3006 3 
31 2778 2777 1 
32 2992 2778 3 
33 2992 2991 1 
34 2992 3002 3 
35 3010 3986 3 
36 3010 3009 1 
37 3510 3010 3 
38 3510 3509 1 
39 3986 3510 3 
40 3986 3985 1 
41 3467 3468 1 
42 3493 4021 2 
43 3757 3758 1 
44 3770 3769 1 
45 4012 3770 3 
46 3281 3282 1 
47 4499 4500 1 
48 4048 4047 1 
49 4761 4762 1 
50 4521 4522 1 
51 4521 4761 2 
52 4276 4048 3 
53 4515 4741 2 
54 4741 4742 1 
55 4735 4736 1 
56 5002 5001 1 
57 4493 4494 1 
58 4493 4735 2 
59 4755 4756 1 
60 4755 5501 2 
61 5017 5018 1 
62 5017 5239 2 
63 5239 5240 1 
64 6233 6234 1 
65 6223 6224 1 
66 6231 6232 1 
67 6002 244 3 
68 244 243 1 
69 6022 248 3 
70 6022 6021 1 
71 257 258 1 
72 257 6241 2 
73 248 12 3 
74 248 247 1 
75 12 34 3 
76 12 11 1 
77 12 6022 3 
78 34 248 3 
79 34 33 1 
80 34 6022 3 
81 274 273 1 
82 512 511 1 
83 512 274 3 
84 22 512 3 
85 22 274 3 
86 501 502 1 
87 33 501 2 
88 271 272 1 
89 270 522 3 
90 270 768 3 
91 270 526 3 
92 522 521 1 
93 522 768 3 
94 526 522 3 
95 526 1022 3 
96 768 1022 3 
97 515 516 1 
98 1020 1002 3 
99 1020 1019 1 
100 1040 1274 3 
101 1040 1039 1 
102 1040 1534 3 
103 1780 1034 3 
104 1780 1779 1 
105 2020 1780 3 
106 2020 2019 1 
107 1034 2020 3 
108 1034 1033 1 
109 1534 1274 3 
110 1534 1533 1 
111 1274 1018 3 
112 1274 1273 1 
113 1018 1040 3 
114 1018 1017 1 
115 1018 1534 3 
116 2763 2764 1 
117 2535 2536 1 
118 3006 2992 3 
119 3006 3005 1 
120 3002 2778 3 
121 3002 3001 1 
122 3002 3006 3 
123 2531 2731 2 
124 2512 2530 3 
125 2512 2522 3 
126 2532 2772 3 
127 2532 2531 1 
128 2530 2532 3 
129 2530 2529 1 
130 2522 2532 3 
131 2522 2772 3 
132 2772 2530 3 
133 2772 2771 1 
134 3496 3022 3 
135 3526 3525 1 
136 3511 3512 1 
137 3512 3526 3 
138 4022 4021 1 
139 3503 3504 1 
140 4011 4012 1 
141 4031 4032 1 
142 4264 5036 3 
143 4264 4263 1 
144 4264 4534 3 
145 5036 4282 3 
146 5036 5035 1 
147 4282 4264 3 
148 4282 4281 1 
149 4282 4534 3 
150 4534 5036 3 
151 4534 4533 1 
152 4516 4780 3 
153 4516 4515 1 
154 4780 4262 3 
155 4780 4779 1 
156 4262 4516 3 
157 4262 4261 1 
158 4746 5002 3 
159 5289 5290 1 
160 4745 4746 1 
161 4745 5021 2 
162 5021 5022 1 
163 4759 4760 1 
164 6003 6004 1 
165 6008 6007 1 
166 6001 6002 1 
167 6224 6008 3 
168 21 22 1 
169 21 511 2 
170 273 541 2 
171 6036 6035 1 
172 524 6036 3 
173 280 532 3 
174 6045 6046 1 
175 5787 5788 1 
176 5787 6045 2 
177 539 540 1 
178 1002 536 3 
179 1002 1001 1 
180 536 1020 3 
181 536 535 1 
182 1042 778 3 
183 778 777 1 
184 1041 1042 1 
185 1521 1522 1 
186 1283 1521 2 
187 1515 1516 1 
188 1787 1788 1 
189 3041 3042 1 
190 2281 2529 2 
191 3264 3538 3 
192 3264 3263 1 
193 3264 3272 3 
194 3538 3034 3 
195 3538 3537 1 
196 3290 2784 3 
197 3034 3264 3 
198 3034 3033 1 
199 3241 3242 1 
200 3311 3312 1 
201 3311 3547 2 
202 2784 2783 1 
203 3013 3014 1 
204 3790 3534 3 
205 3790 3789 1 
206 3015 3016 1 
207 3015 3525 2 
208 3534 3316 3 
209 3534 3533 1 
210 2524 3534 3 
211 2524 2523 1 
212 2524 3790 3 
213 3316 2524 3 
214 3316 3315 1 
215 3316 3790 3 
216 3263 3535 2 
217 3535 3536 1 
218 3539 3540 1 
219 3797 3798 1 
220 4556 4764 3 
221 4556 4555 1 
222 4302 5292 3 
223 5292 5291 1 
224 4764 4532 3 
225 4764 4763 1 
226 4791 4792 1 
227 11 6051 2 
228 6051 6052 1 
229 541 542 1 
230 35 6035 2 
231 279 280 1 
232 321 322 1 
233 537 538 1 
234 295 296 1 
235 295 815 2 
236 815 816 1 
237 1047 1048 1 
238 1031 1032 1 
239 1528 1284 3 
240 2061 2062 1 
241 1791 1792 1 
242 1541 1542 1 
243 1281 1541 2 
244 2563 2564 1 
245 2563 2817 2 
246 2817 2818 1 
247 2313 2314 1 
248 2313 2775 2 
249 2775 2776 1 
250 2301 2302 1 
251 2551 2552 1 
252 2519 2520 1 
253 2571 2572 1 
254 3292 3291 1 
255 3310 3292 3 
256 3548 3284 3 
257 3548 3547 1 
258 3048 3548 3 
259 3048 3047 1 
260 3284 3048 3 
261 3284 3283 1 
262 3289 3290 1 
263 2781 2782 1 
264 2781 3289 2 
265 3309 3310 1 
266 3540 4524 3 
267 4524 4523 1 
268 3567 3568 1 
269 4301 4302 1 
270 4527 4528 1 
271 5823 5824 1 
272 5532 5531 1 
273 5320 5532 3 
274 5319 5320 1 
275 6029 6030 1 
276 5782 36 3 
277 36 35 1 
278 554 546 3 
279 554 553 1 
280 322 6044 3 
281 6044 6043 1 
282 545 553 2 
283 792 554 3 
284 792 791 1 
285 546 792 3 
286 546 545 1 
287 795 796 1 
288 800 799 1 
289 71 72 1 
290 1289 1290 1 
291 1570 1532 3 
292 1570 1569 1 
293 2053 2054 1 
294 1571 1572 1 
295 1571 1781 2 
296 1781 1782 1 
297 1798 1797 1 
298 1562 1798 3 
299 1795 1796 1 
300 1795 2053 2 
301 1824 2292 3 
302 1824 1823 1 
303 2327 2328 1 
304 2035 2036 1 
305 2043 2044 1 
306 2021 2022 1 
307 2801 2802 1 
308 2821 2822 1 
309 2821 3317 2 
310 3317 3318 1 
311 3573 3574 1 
312 4291 4292 1 
313 4287 4288 1 
314 4325 4326 1 
315 4767 4768 1 
316 4551 4552 1 
317 4783 4784 1 
318 4085 4086 1 
319 5049 5050 1 
320 4805 4806 1 
321 4303 4304 1 
322 4803 4804 1 
323 4813 4814 1 
324 4813 5565 2 
325 5565 5566 1 
326 4574 5798 3 
327 5798 5797 1 
328 5801 5802 1 
329 5786 5812 3 
330 6061 6062 1 
331 5813 5814 1 
332 5814 5302 3 
333 5779 5780 1 
334 294 52 3 
335 294 293 1 
336 294 5548 3 
337 52 6064 3 
338 52 51 1 
339 52 5548 3 
340 561 562 1 
341 5548 6064 3 
342 5548 5547 1 
343 6064 294 3 
344 6064 6063 1 
345 5302 5301 1 
346 75 76 1 
347 798 797 1 
348 314 798 3 
349 796 800 3 
350 589 590 1 
351 69 70 1 
352 69 589 2 
353 1532 1554 3 
354 1532 1531 1 
355 2541 2542 1 
356 1572 1302 3 
357 2291 2353 2 
358 2353 2354 1 
359 2065 2066 1 
360 3589 3590 1 
361 3297 3298 1 
362 3306 3558 3 
363 3306 3305 1 
364 3558 4066 3 
365 3558 3557 1 
366 4066 3306 3 
367 4066 4065 1 
368 4059 4060 1 
369 4059 4065 2 
370 4326 3556 3 
371 4073 4074 1 
372 4323 4324 1 
373 4315 4316 1 
374 4804 5296 3 
375 5296 5295 1 
376 5333 5334 1 
377 5785 5786 1 
378 5816 5815 1 
379 6027 6028 1 
380 5825 5826 1 
381 5825 6063 2 
382 74 5816 3 
383 5812 5811 1 
384 5551 5552 1 
385 292 291 1 
386 567 568 1 
387 825 826 1 
388 93 94 1 
389 93 565 2 
390 336 822 3 
391 855 856 1 
392 1310 1070 3 
393 1310 1309 1 
394 828 1832 3 
395 828 827 1 
396 1074 828 3 
397 1074 1073 1 
398 1832 1074 3 
399 1832 1831 1 
400 1551 1552 1 
401 847 848 1 
402 847 2077 2 
403 2082 2081 1 
404 1821 1822 1 
405 2581 2582 1 
406 2824 3038 3 
407 3038 3037 1 
408 3279 3280 1 
409 2559 2560 1 
410 2559 2835 2 
411 2823 2824 1 
412 2844 2562 3 
413 2844 2843 1 
414 2844 3074 3 
415 3561 3562 1 
416 3582 3322 3 
417 3322 3321 1 
418 4311 4312 1 
419 3072 3071 1 
420 3552 3072 3 
421 3793 3794 1 
422 4587 4588 1 
423 3572 4072 3 
424 3572 3571 1 
425 4322 3572 3 
426 4322 4321 1 
427 3802 3801 1 
428 3591 3592 1 
429 4074 3802 3 
430 5071 5072 1 
431 5085 5086 1 
432 5337 5338 1 
433 4825 4826 1 
434 5081 5082 1 
435 5051 5052 1 
436 5051 5573 2 
437 5573 5574 1 
438 5327 5328 1 
439 6103 6104 1 
440 5819 5820 1 
441 5819 6083 2 
442 5315 5316 1 
443 5563 5564 1 
444 5563 5811 2 
445 6083 6084 1 
446 6079 6080 1 
447 61 62 1 
448 6071 6072 1 
449 831 832 1 
450 343 831 2 
451 565 566 1 
452 586 585 1 
453 832 586 3 
454 823 824 1 
455 843 844 1 
456 811 812 1 
457 833 834 1 
458 829 830 1 
459 2077 2078 1 
460 1077 1078 1 
461 1077 1367 2 
462 1813 1814 1 
463 2081 2089 2 
464 1599 1600 1 
465 3037 3095 2 
466 2585 2586 1 
467 2349 2585 2 
468 2831 2832 1 
469 2087 2088 1 
470 3813 3814 1 
471 2859 2860 1 
472 3061 3062 1 
473 3087 3088 1 
474 3825 3826 1 
475 3825 3853 2 
476 3864 3092 3 
477 3092 3091 1 
478 4571 4572 1 
479 3833 3834 1 
480 3833 4571 2 
481 4095 4096 1 
482 4605 5061 2 
483 4605 4606 1 
484 4577 4578 1 
485 4335 4336 1 
486 5065 5066 1 
487 5077 5078 1 
488 4836 4835 1 
489 5098 4836 3 
490 5345 5346 1 
491 5561 5562 1 
492 5325 5326 1 
493 91 5327 2 
494 92 91 1 
495 6104 92 3 
496 6095 6096 1 
497 592 350 3 
498 592 591 1 
499 344 592 3 
500 344 343 1 
501 1603 1604 1 
502 1113 1114 1 
503 1091 1103 2 
504 1347 1348 1 
505 1092 1091 1 
506 1103 1104 1 
507 1351 1352 1 
508 1847 1848 1 
509 1847 2615 2 
510 2342 2864 3 
511 2342 2341 1 
512 2894 2342 3 
513 2894 2893 1 
514 2864 2894 3 
515 2864 2863 1 
516 3084 2826 3 
517 3084 3083 1 
518 2335 2336 1 
519 3607 3608 1 
520 3607 3813 2 
521 4337 4338 1 
522 2842 2841 1 
523 2583 2584 1 
524 3123 3124 1 
525 3088 2842 3 
526 3863 3864 1 
527 3593 3594 1 
528 3593 3863 2 
529 3851 3852 1 
530 5061 5062 1 
531 4569 4570 1 
532 5079 5080 1 
533 5079 5345 2 
534 4339 4340 1 
535 101 102 1 
536 6102 6101 1 
537 5841 5842 1 
538 6086 6085 1 
539 102 6086 3 
540 591 875 2 
541 1614 1613 1 
542 621 622 1 
543 1401 1402 1 
544 1853 1854 1 
545 1605 1606 1 
546 1861 1862 1 
547 1835 2115 2 
548 2616 2615 1 
549 1858 2616 3 
550 2363 2364 1 
551 3341 3342 1 
552 3337 3338 1 
553 3124 3884 3 
554 3619 3620 1 
555 3884 3883 1 
556 3105 3106 1 
557 3861 3862 1 
558 3371 3372 1 
559 4369 4370 1 
560 4364 4363 1 
561 4084 4364 3 
562 5354 5353 1 
563 4592 5354 3 
564 4875 4876 1 
565 4593 4594 1 
566 4599 4600 1 
567 4599 4875 2 
568 4874 4586 3 
569 4874 4873 1 
570 4874 5134 3 
571 4586 4846 3 
572 4586 4585 1 
573 4586 5134 3 
574 4846 4874 3 
575 4846 4845 1 
576 5134 4846 3 
577 5134 5133 1 
578 5351 5352 1 
579 371 372 1 
580 5347 5348 1 
581 5599 5600 1 
582 325 326 1 
583 325 6101 2 
584 114 113 1 
585 6110 114 3 
586 6109 6110 1 
587 341 342 1 
588 5881 5882 1 
589 5881 6109 2 
590 139 140 1 
591 616 864 3 
592 864 863 1 
593 615 616 1 
594 1147 1148 1 
595 653 654 1 
596 653 1147 2 
597 634 1614 3 
598 633 634 1 
599 1133 1134 1 
600 1373 1374 1 
601 1393 1394 1 
602 1875 1876 1 
603 1391 1392 1 
604 2115 2116 1 
605 2113 2114 1 
606 2619 2620 1 
607 2619 2853 2 
608 2853 2854 1 
609 3625 3626 1 
610 3375 3883 2 
611 3862 3624 3 
612 3624 3623 1 
613 3376 4146 3 
614 3376 3375 1 
615 4115 4116 1 
616 4103 4115 2 
617 3871 3872 1 
618 3871 4611 2 
619 5103 5104 1 
620 4121 4122 1 
621 4873 5353 2 
622 4591 4592 1 
623 5635 5636 1 
624 4629 4630 1 
625 4629 5635 2 
626 5877 5878 1 
627 5602 6132 3 
628 6132 6131 1 
629 5633 5634 1 
630 153 154 1 
631 5597 5598 1 
632 121 122 1 
633 123 124 1 
634 1379 1380 1 
635 877 878 1 
636 142 141 1 
637 613 614 1 
638 1380 142 3 
639 1136 1135 1 
640 1134 1136 3 
641 1375 1376 1 
642 1623 1624 1 
643 895 896 1 
644 1121 1122 1 
645 1121 2141 2 
646 2141 2142 1 
647 1385 1386 1 
648 1385 1881 2 
649 3144 3376 3 
650 3144 3143 1 
651 3633 3865 2 
652 3143 3641 2 
653 3898 2866 3 
654 2866 2865 1 
655 2865 3901 2 
656 3613 3614 1 
657 3613 4633 2 
658 4111 4112 1 
659 4397 4398 1 
660 5151 5152 1 
661 5381 5382 1 
662 5395 5396 1 
663 5395 5631 2 
664 5665 5666 1 
665 5871 5872 1 
666 6121 6122 1 
667 151 152 1 
668 151 641 2 
669 641 642 1 
670 141 143 2 
671 1143 1144 1 
672 2895 2896 1 
673 1883 1884 1 
674 1882 2174 3 
675 1882 1881 1 
676 1882 2374 3 
677 1882 2152 3 
678 2152 2374 3 
679 2152 2151 1 
680 2374 2174 3 
681 2374 2373 1 
682 2174 2152 3 
683 2174 2173 1 
684 1668 1667 1 
685 2647 2648 1 
686 3167 3168 1 
687 3865 3866 1 
688 4396 4634 3 
689 4634 4633 1 
690 3390 4412 3 
691 4412 4411 1 
692 3405 4135 2 
693 4135 4136 1 
694 4395 4396 1 
695 4923 4924 1 
696 5167 5168 1 
697 5383 5384 1 
698 5631 5632 1 
699 5898 5897 1 
700 5883 5884 1 
701 902 384 3 
702 902 901 1 
703 132 902 3 
704 132 131 1 
705 384 132 3 
706 384 383 1 
707 415 421 2 
708 1653 1654 1 
709 1644 1643 1 
710 1937 1938 1 
711 2130 1644 3 
712 2129 2130 1 
713 1907 1908 1 
714 1907 2373 2 
715 2662 2661 1 
716 2648 2662 3 
717 3667 3668 1 
718 2871 2872 1 
719 2871 2907 2 
720 2656 2655 1 
721 2907 2908 1 
722 2934 2656 3 
723 2899 2900 1 
724 3161 3162 1 
725 2655 3151 2 
726 2933 2934 1 
727 4142 4141 1 
728 3899 3900 1 
729 3681 3682 1 
730 3900 4142 3 
731 3621 3622 1 
732 3621 4421 2 
733 4421 4422 1 
734 3395 3396 1 
735 3678 3677 1 
736 3915 3916 1 
737 4134 4133 1 
738 3378 4134 3 
739 3916 3678 3 
740 4877 4878 1 
741 4877 4931 2 
742 4922 4196 3 
743 4415 4416 1 
744 4415 5163 2 
745 4625 4626 1 
746 5897 6155 2 
747 6156 112 3 
748 6156 6155 1 
749 378 6156 3 
750 378 377 1 
751 5412 378 3 
752 5412 5411 1 
753 5412 6156 3 
754 6153 6154 1 
755 5411 6153 2 
756 689 690 1 
757 422 421 1 
758 656 422 3 
759 1161 1162 1 
760 1673 1674 1 
761 175 176 1 
762 2414 2184 3 
763 2414 2413 1 
764 2184 1672 3 
765 2184 2183 1 
766 1672 2414 3 
767 1672 1671 1 
768 3649 3650 1 
769 3674 3673 1 
770 3172 3674 3 
771 2902 2684 3 
772 2684 2683 1 
773 3631 3632 1 
774 3631 3679 2 
775 3663 3664 1 
776 3377 3378 1 
777 4173 4174 1 
778 4168 4674 3 
779 4168 4167 1 
780 4428 4168 3 
781 4428 4427 1 
782 4674 4428 3 
783 4674 4673 1 
784 4911 4912 1 
785 4947 4948 1 
786 4921 4922 1 
787 4921 4947 2 
788 5185 5447 2 
789 4918 4917 1 
790 5146 4918 3 
791 5447 5448 1 
792 5663 5664 1 
793 5403 5404 1 
794 5164 5163 1 
795 4680 5164 3 
796 112 378 3 
797 112 111 1 
798 112 5412 3 
799 5921 5922 1 
800 401 402 1 
801 674 673 1 
802 655 656 1 
803 1165 1166 1 
804 921 922 1 
805 671 921 2 
806 1181 1191 2 
807 1192 1191 1 
808 1412 1192 3 
809 1155 1156 1 
810 1155 1913 2 
811 1453 1665 2 
812 1665 1666 1 
813 1913 1914 1 
814 1933 1934 1 
815 1922 1894 3 
816 2915 2916 1 
817 1894 1893 1 
818 2665 2666 1 
819 2665 2915 2 
820 2437 2438 1 
821 2687 2688 1 
822 2901 2902 1 
823 2691 2692 1 
824 3679 3680 1 
825 3171 3172 1 
826 3201 3202 1 
827 3411 3412 1 
828 3411 3671 2 
829 4153 4154 1 
830 4699 4700 1 
831 4699 5173 2 
832 5186 5174 3 
833 5186 5185 1 
834 5174 5446 3 
835 5174 5173 1 
836 5446 5186 3 
837 5446 5445 1 
838 5444 5956 3 
839 5672 5670 3 
840 5670 5669 1 
841 5956 5955 1 
842 5691 5692 1 
843 5443 5444 1 
844 5443 5691 2 
845 6203 6204 1 
846 5671 5672 1 
847 170 169 1 
848 190 170 3 
849 179 180 1 
850 221 222 1 
851 943 944 1 
852 206 205 1 
853 460 952 3 
854 460 459 1 
855 702 460 3 
856 702 701 1 
857 1185 1186 1 
858 1197 1198 1 
859 955 956 1 
860 1666 1454 3 
861 1411 1412 1 
862 1454 1453 1 
863 2431 2432 1 
864 2431 2437 2 
865 2185 2186 1 
866 2185 2193 2 
867 2193 2194 1 
868 1699 1700 1 
869 2441 2442 1 
870 3177 3178 1 
871 3421 3422 1 
872 3421 3711 2 
873 3414 3204 3 
874 3414 3413 1 
875 3711 3712 1 
876 3422 3702 3 
877 3702 3701 1 
878 3683 3684 1 
879 3457 3683 2 
880 4201 4202 1 
881 3961 3962 1 
882 4683 4684 1 
883 4683 4945 2 
884 5675 5676 1 
885 6174 5206 3 
886 6174 6173 1 
887 6217 6218 1 
888 423 424 1 
889 423 5933 2 
890 5967 6173 2 
891 189 190 1 
892 194 193 1 
893 196 194 3 
894 209 210 1 
895 209 729 2 
896 216 472 3 
897 472 471 1 
898 451 452 1 
899 214 213 1 
900 452 214 3 
901 471 661 2 
902 691 692 1 
903 1444 1443 1 
904 700 1444 3 
905 183 691 2 
906 1215 1216 1 
907 699 700 1 
908 699 1215 2 
909 1703 1704 1 
910 2196 2208 3 
911 2440 2439 1 
912 2440 2926 3 
913 2727 3455 2 
914 3222 3456 3 
915 2701 2702 1 
916 2701 3443 2 
917 3456 3455 1 
918 2704 2946 3 
919 2946 2945 1 
920 3975 3976 1 
921 3701 3975 2 
922 4672 4671 1 
923 4220 4672 3 
924 4435 4436 1 
925 4693 4694 1 
926 4219 4693 2 
927 4219 4220 1 
928 4449 4450 1 
929 4963 4964 1 
930 5189 5190 1 
931 4945 4946 1 
932 4455 4456 1 
933 5451 5452 1 
934 5191 5192 1 
935 4209 5451 2 
936 5209 5210 1 
937 5964 6174 3 
938 5964 5963 1 
939 5206 5964 3 
940 5206 5205 1 
941 5421 5422 1 
942 5421 5677 2 
943 5932 5966 3 
944 5932 5931 1 
945 5932 5934 3 
946 5966 204 3 
947 5966 5965 1 
948 204 5932 3 
949 204 203 1 
950 204 5934 3 
951 5934 5966 3 
952 5934 5933 1 
953 6163 6164 1 
954 5968 5967 1 
955 706 5968 3 
956 195 196 1 
957 705 6191 2 
958 705 706 1 
959 6195 6196 1 
960 191 192 1 
961 191 483 2 
962 184 183 1 
963 1230 184 3 
964 1951 1952 1 
965 1498 1994 3 
966 1994 2240 3 
967 2729 2730 1 
968 1943 1944 1 
969 2213 2214 1 
970 2461 2462 1 
971 2211 2461 2 
972 2208 2207 1 
973 2455 2456 1 
974 1967 2455 2 
975 1999 2000 1 
976 1999 2973 2 
977 3443 3444 1 
978 3980 3979 1 
979 3191 3192 1 
980 4437 4438 1 
981 4215 4216 1 
982 4215 4437 2 
983 4446 4445 1 
984 4479 4713 2 
985 4941 4942 1 
986 5706 5962 3 
987 5706 5705 1 
988 5962 5694 3 
989 5962 5961 1 
990 5223 5224 1 
991 5937 5938 1 
992 5463 5464 1 
993 5463 5937 2 
994 6221 6222 1 
995 5207 5208 1 
996 203 5207 2 
997 6213 6214 1 
998 245 246 1 
999 464 463 1 
1000 231 232 1 
1001 484 483 1 
1002 461 462 1 
1003 480 464 3 
1004 1221 1222 1 
1005 1211 1212 1 
1006 1211 1221 2 
1007 997 1451 2 
1008 1718 2240 3 
1009 2240 2239 1 
1010 1993 1994 1 
1011 1481 2239 2 
1012 2483 2484 1 
1013 2456 2212 3 
1014 1978 1956 3 
1015 1978 1977 1 
1016 1482 1978 3 
1017 1482 1481 1 
1018 1956 1482 3 
1019 1956 1955 1 
1020 2212 2211 1 
1021 2973 2974 1 
1022 2986 2994 3 
1023 2986 2985 1 
1024 2994 3214 3 
1025 2994 2993 1 
1026 2994 3210 3 
1027 3214 2986 3 
1028 3214 3213 1 
1029 3210 2986 3 
1030 3210 3209 1 
1031 3210 3214 3 
1032 2719 2720 1 
1033 2719 3231 2 
1034 3231 3232 1 
1035 3233 3234 1 
1036 3964 3963 1 
1037 3232 3964 3 
1038 3983 3984 1 
1039 3979 3983 2 
1040 3951 3952 1 
1041 4226 4446 3 
1042 4987 4988 1 
1043 3751 3752 1 
1044 4225 4226 1 
1045 4970 4480 3 
1046 4970 4969 1 
1047 4480 4260 3 
1048 4480 4479 1 
1049 4260 4970 3 
1050 4260 4259 1 
1051 4489 4490 1 
1052 4977 4978 1 
1053 5723 5724 1 
1054 5724 5714 3 
1055 5714 5713 1 
1056 5713 6005 2 
1057 496 484 3 
1058 225 226 1 
1059 495 496 1 
1060 1488 1487 1 
1061 1476 1488 3 
1062 1475 1476 1 
1063 1247 1475 2 
1064 1249 1250 1 
1065 1249 1489 2 
1066 1735 1736 1 
1067 2243 2244 1 
1068 2500 2474 3 
1069 2500 2499 1 
1070 2474 2488 3 
1071 2474 2473 1 
1072 2488 2500 3 
1073 2488 2487 1 
1074 2743 2744 1 
1075 2242 2224 3 
1076 2242 2241 1 
1077 2972 2242 3 
1078 2972 2971 1 
1079 2737 2738 1 
1080 2975 2976 1 
1081 3464 3463 1 
1082 2976 3464 3 
1083 3520 3266 3 
1084 4491 4492 1 
1085 3243 3244 1 
1086 3243 4491 2 
1087 3491 3492 1 
1088 3965 3966 1 
1089 5216 5215 1 
1090 4502 5216 3 
1091 4501 4502 1 
1092 4501 4991 2 
1093 4259 4721 2 
1094 5222 4722 3 
1095 5222 5221 1 
1096 5755 5756 1 
1097 5492 5266 3 
1098 5492 5491 1 
1099 5490 5492 3 
1100 5490 5489 1 
1101 6005 6006 1 
1102 475 476 1 
1103 243 475 2 
1104 487 488 1 
1105 5 6 1 
1106 5 733 2 
1107 505 506 1 
1108 6017 6018 1 
1109 1239 1240 1 
1110 485 1239 2 
1111 486 485 1 
1112 1242 486 3 
1113 1013 1014 1 
1114 1241 1242 1 
1115 1484 1762 3 
1116 1762 1761 1 
1117 2255 2256 1 
1118 1233 1234 1 
1119 2503 2504 1 
1120 2503 2739 2 
1121 2224 2972 3 
1122 2224 2223 1 
1123 2504 2740 3 
1124 2740 2739 1 
1125 2247 2248 1 
1126 2513 2514 1 
1127 2997 2998 1 
1128 3483 3484 1 
1129 3483 3741 2 
1130 2983 2984 1 
1131 2983 2997 2 
1132 3519 3520 1 
1133 3494 3493 1 
1134 3758 3494 3 
1135 4247 4248 1 
1136 4503 4504 1 
1137 4221 4222 1 
1138 3731 3732 1 
1139 3769 4503 2 
1140 4757 4758 1 
1141 4762 5242 3 
1142 5266 5490 3 
1143 5266 5265 1 
1144 5259 5260 1 
1145 5259 5737 2 
1146 5737 5738 1 
1147 5734 5748 3 
1148 5734 5733 1 
1149 5472 5734 3 
1150 5472 5471 1 
1151 5742 5256 3 
1152 5256 5255 1 
1153 5748 5472 3 
1154 5748 5747 1 
1155 5255 5747 2 
1156 5741 5742 1 
1157 6010 6242 3 
1158 251 252 1 
1159 489 490 1 
1160 29 251 2 
1161 6025 6026 1 
1162 263 264 1 
1163 763 764 1 
1164 234 233 1 
1165 506 234 3 
1166 1256 1255 1 
1167 755 756 1 
1168 755 1499 2 
1169 981 982 1 
1170 981 1235 2 
1171 741 742 1 
1172 1786 1280 3 
1173 1786 1785 1 
1174 1008 1786 3 
1175 1008 1007 1 
1176 1280 1008 3 
1177 1280 1279 1 
1178 769 770 1 
1179 1747 1748 1 
1180 1747 1757 2 
1181 1757 1758 1 
1182 1265 1266 1 
1183 1265 2273 2 
1184 2273 2274 1 
1185 1507 1508 1 
1186 2225 2226 1 
1187 2001 2002 1 
1188 2471 2472 1 
1189 1517 1518 1 
1190 2270 2258 3 
1191 2258 2257 1 
1192 2254 2280 3 
1193 1751 1752 1 
1194 1751 2769 2 
1195 1519 1520 1 
1196 1519 2275 2 
1197 2745 2746 1 
1198 2251 2489 2 
1199 2489 2490 1 
1200 2279 2509 2 
1201 2509 2510 1 
1202 2276 2018 3 
1203 2276 2275 1 
1204 2754 2276 3 
1205 2754 2753 1 
1206 2508 2276 3 
1207 2508 2507 1 
1208 2508 2754 3 
1209 2018 2508 3 
1210 2018 2017 1 
1211 2018 2754 3 
1212 2981 2982 1 
1213 2961 2962 1 
1214 2481 2482 1 
1215 3257 3258 1 
1216 3245 3246 1 
1217 3303 3304 1 
1218 3517 3518 1 
1219 2515 2516 1 
1220 3304 3550 3 
1221 3504 4022 3 
1222 3763 3764 1 
1223 3760 3759 1 
1224 3527 3528 1 
1225 3527 3777 2 
1226 3514 3760 3 
1227 4007 4008 1 
1228 3761 3762 1 
1229 3766 3744 3 
1230 3766 3765 1 
1231 3744 4744 3 
1232 3744 3743 1 
1233 4254 4253 1 
1234 4984 4254 3 
1235 4275 4276 1 
1236 4280 4279 1 
1237 4752 5790 3 
1238 4752 4751 1 
1239 5790 5504 3 
1240 5790 5789 1 
1241 5504 4752 3 
1242 5504 5503 1 
1243 5481 5482 1 
1244 4753 4754 1 
1245 4753 5533 2 
1246 5014 5502 3 
1247 5005 5006 1 
1248 5005 5279 2 
1249 5533 5534 1 
1250 5276 5758 3 
1251 5276 5275 1 
1252 5502 5501 1 
1253 5020 5276 3 
1254 5020 5019 1 
1255 5758 5020 3 
1256 5758 5757 1 
1257 5513 5514 1 
1258 5497 5498 1 
1259 5983 5984 1 
1260 5981 6007 2 
1261 249 250 1 
1262 507 508 1 
1263 5765 5766 1 
1264 5765 6013 2 
1265 9 10 1 
1266 6013 6014 1 
1267 529 530 1 
1268 520 30 3 
1269 520 519 1 
1270 30 6016 3 
1271 30 29 1 
1272 6016 520 3 
1273 6016 6015 1 
1274 25 26 1 
1275 514 513 1 
1276 775 776 1 
1277 788 514 3 
1278 516 284 3 
1279 284 283 1 
1280 1021 1022 1 
1281 535 1021 2 
1282 1776 1775 1 
1283 1028 1776 3 
1284 1509 1510 1 
1285 2741 2742 1 
1286 1537 1538 1 
1287 1266 2014 3 
1288 2289 2290 1 
1289 1767 1768 1 
1290 2014 2013 1 
1291 2271 2272 1 
1292 2266 2294 3 
1293 2266 2265 1 
1294 2770 2266 3 
1295 2770 2769 1 
1296 2294 2770 3 
1297 2294 2293 1 
1298 3018 2760 3 
1299 2760 2759 1 
1300 1995 1996 1 
1301 2497 2498 1 
1302 2749 2750 1 
1303 2749 3245 2 
1304 3017 3018 1 
1305 2262 3262 3 
1306 2262 2261 1 
1307 2262 2518 3 
1308 2511 2512 1 
1309 2511 2767 2 
1310 3788 2262 3 
1311 3788 3787 1 
1312 3262 3788 3 
1313 3262 3261 1 
1314 2518 3262 3 
1315 2518 2517 1 
1316 2518 3788 3 
1317 3004 3030 3 
1318 3004 3003 1 
1319 3550 3549 1 
1320 3495 3496 1 
1321 3549 3779 2 
1322 3779 3780 1 
1323 3759 3767 2 
1324 3767 3768 1 
1325 4024 4023 1 
1326 3764 3778 3 
1327 3513 3514 1 
1328 3778 3777 1 
1329 4285 4286 1 
1330 4017 4018 1 
1331 4017 4285 2 
1332 3253 3254 1 
1333 4744 3766 3 
1334 4744 4743 1 
1335 4513 4514 1 
1336 4270 4272 3 
1337 4270 4269 1 
1338 4270 4278 3 
1339 4266 4272 3 
1340 4266 4265 1 
1341 4266 4270 3 
1342 4272 4278 3 
1343 4272 4271 1 
1344 4278 4266 3 
1345 4278 4277 1 
1346 4281 4787 2 
1347 4289 4290 1 
1348 4289 4497 2 
1349 4497 4498 1 
1350 4037 4038 1 
1351 4019 4020 1 
1352 5046 5045 1 
1353 4267 4268 1 
1354 4261 4267 2 
1355 4786 5046 3 
1356 5525 5526 1 
1357 5273 5274 1 
1358 5001 5263 2 
1359 4774 4773 1 
1360 5013 5014 1 
1361 5534 5264 3 
1362 5264 5263 1 
1363 5022 4774 3 
1364 5987 5988 1 
1365 5261 5262 1 
1366 5261 5987 2 
1367 5521 5522 1 
1368 5281 5282 1 
1369 5281 5521 2 
1370 5015 5016 1 
1371 5269 5270 1 
1372 5269 5495 2 
1373 5763 5764 1 
1374 5761 5762 1 
1375 5539 5540 1 
1376 6011 6012 1 
1377 5767 5768 1 
1378 5771 5772 1 
1379 532 531 1 
1380 261 531 2 
1381 5783 5784 1 
1382 5783 5795 2 
1383 23 24 1 
1384 785 786 1 
1385 268 1024 3 
1386 1024 1023 1 
1387 1067 1068 1 
1388 804 548 3 
1389 804 803 1 
1390 548 528 3 
1391 548 547 1 
1392 528 804 3 
1393 528 527 1 
1394 528 558 3 
1395 1030 1029 1 
1396 767 768 1 
1397 767 1043 2 
1398 1043 1044 1 
1399 1275 1276 1 
1400 1032 1038 3 
1401 1038 1037 1 
1402 760 1054 3 
1403 760 759 1 
1404 1308 760 3 
1405 1308 1307 1 
1406 517 518 1 
1407 1054 1308 3 
1408 1054 1053 1 
1409 47 48 1 
1410 47 517 2 
1411 771 772 1 
1412 771 1533 2 
1413 1536 1268 3 
1414 1536 1535 1 
1415 1760 1536 3 
1416 1760 1759 1 
1417 1278 1268 3 
1418 1278 1277 1 
1419 1278 1760 3 
1420 1278 1536 3 
1421 1268 1760 3 
1422 1268 1267 1 
1423 1284 1283 1 
1424 1027 1028 1 
1425 1777 1778 1 
1426 1769 1770 1 
1427 1772 1282 3 
1428 2297 2298 1 
1429 1282 1281 1 
1430 2283 2284 1 
1431 2540 2286 3 
1432 2286 2285 1 
1433 2759 3251 2 
1434 2300 2299 1 
1435 3020 2798 3 
1436 3020 3019 1 
1437 3020 3546 3 
1438 3020 3026 3 
1439 3026 2798 3 
1440 3026 3025 1 
1441 3546 3026 3 
1442 3546 3545 1 
1443 2798 3546 3 
1444 2798 2797 1 
1445 2521 2522 1 
1446 2768 2792 3 
1447 2768 2767 1 
1448 3268 2768 3 
1449 3268 3267 1 
1450 3272 3034 3 
1451 3272 3271 1 
1452 3272 3538 3 
1453 3022 3021 1 
1454 3515 3516 1 
1455 3261 3545 2 
1456 4026 3746 3 
1457 3270 4024 3 
1458 3269 3270 1 
1459 3544 4028 3 
1460 3544 3543 1 
1461 4039 4040 1 
1462 4040 3320 3 
1463 3996 4006 3 
1464 3996 3995 1 
1465 4006 4042 3 
1466 4006 4005 1 
1467 4055 4056 1 
1468 4042 3996 3 
1469 4042 4041 1 
1470 4763 5023 2 
1471 5023 5024 1 
1472 4771 4772 1 
1473 4550 4764 3 
1474 4550 4549 1 
1475 4550 4556 3 
1476 4532 4550 3 
1477 4532 4531 1 
1478 4532 4556 3 
1479 4558 5032 3 
1480 4558 4557 1 
1481 4558 5054 3 
1482 4558 5254 3 
1483 4296 4294 3 
1484 5283 5284 1 
1485 5277 5278 1 
1486 5277 5283 2 
1487 4294 4293 1 
1488 5032 5054 3 
1489 5032 5031 1 
1490 5029 5030 1 
1491 4785 4786 1 
1492 4519 4520 1 
1493 4519 5031 2 
1494 4776 5530 3 
1495 5523 5524 1 
1496 4781 4782 1 
1497 4781 5529 2 
1498 6031 6032 1 
1499 6047 6048 1 
1500 5762 5004 3 
1501 5004 5003 1 
1502 5003 5515 2 
1503 5795 5796 1 
1504 6024 5774 3 
1505 6024 6023 1 
1506 5774 5800 3 
1507 5774 5773 1 
1508 5800 6024 3 
1509 5800 5799 1 
1510 262 261 1 
1511 32 262 3 
1512 31 32 1 
1513 31 773 2 
1514 523 524 1 
1515 19 20 1 
1516 1025 1026 1 
1517 547 1025 2 
1518 1016 550 3 
1519 550 549 1 
1520 1055 1056 1 
1521 793 794 1 
1522 289 1759 2 
1523 1512 534 3 
1524 534 533 1 
1525 1527 1528 1 
1526 1555 1556 1 
1527 1555 2055 2 
1528 1539 1540 1 
1529 1743 1744 1 
1530 1511 1512 1 
1531 2055 2056 1 
1532 2049 2050 1 
1533 1771 1772 1 
1534 1801 1802 1 
1535 1291 1292 1 
1536 1827 1828 1 
1537 2539 2540 1 
1538 2765 2766 1 
1539 2282 1784 3 
1540 2282 2281 1 
1541 1784 3252 3 
1542 1784 1783 1 
1543 3252 2282 3 
1544 3252 3251 1 
1545 2263 2264 1 
1546 3055 3056 1 
1547 3045 3046 1 
1548 3031 3032 1 
1549 3031 3309 2 
1550 4062 4061 1 
1551 3560 4062 3 
1552 3294 3796 3 
1553 3294 4062 3 
1554 3746 3745 1 
1555 3796 4062 3 
1556 4046 3544 3 
1557 4046 4045 1 
1558 3783 3784 1 
1559 3320 3319 1 
1560 3811 3812 1 
1561 4307 4308 1 
1562 4033 4045 2 
1563 4815 4816 1 
1564 4029 4030 1 
1565 4013 4014 1 
1566 3805 3806 1 
1567 4553 4554 1 
1568 4531 4553 2 
1569 5311 5312 1 
1570 5040 5314 3 
1571 5040 5039 1 
1572 5314 5582 3 
1573 5314 5313 1 
1574 5254 5032 3 
1575 5254 5253 1 
1576 5054 5254 3 
1577 5054 5053 1 
1578 4295 4296 1 
1579 5033 5034 1 
1580 5313 5545 2 
1581 4511 4512 1 
1582 4511 5329 2 
1583 5545 5546 1 
1584 5582 5040 3 
1585 5582 5581 1 
1586 5549 5550 1 
1587 5543 5544 1 
1588 5310 5570 3 
1589 5570 5569 1 
1590 5793 5794 1 
1591 5759 5760 1 
1592 5777 5778 1 
1593 17 18 1 
1594 6067 6068 1 
1595 255 256 1 
1596 5803 5804 1 
1597 79 80 1 
1598 55 67 2 
1599 773 774 1 
1600 1015 1016 1 
1601 67 68 1 
1602 39 40 1 
1603 312 808 3 
1604 65 807 2 
1605 808 807 1 
1606 551 1323 2 
1607 552 551 1 
1608 302 288 3 
1609 302 301 1 
1610 556 302 3 
1611 556 555 1 
1612 288 556 3 
1613 288 287 1 
1614 805 806 1 
1615 805 1553 2 
1616 801 802 1 
1617 1554 1570 3 
1618 1554 1553 1 
1619 1295 1296 1 
1620 1302 1301 1 
1621 780 1286 3 
1622 780 779 1 
1623 1286 1804 3 
1624 1286 1285 1 
1625 1804 780 3 
1626 1804 1803 1 
1627 1815 1816 1 
1628 1815 1829 2 
1629 2307 2308 1 
1630 2303 2304 1 
1631 1547 2303 2 
1632 2292 1800 3 
1633 2292 2291 1 
1634 1800 1824 3 
1635 1800 1799 1 
1636 2331 2332 1 
1637 2033 2034 1 
1638 1799 2069 2 
1639 1303 1304 1 
1640 1561 1562 1 
1641 2807 2808 1 
1642 2025 2026 1 
1643 2025 2807 2 
1644 2306 1790 3 
1645 1790 1789 1 
1646 2067 2068 1 
1647 2067 2587 2 
1648 2573 2574 1 
1649 3043 3044 1 
1650 3043 3327 2 
1651 2066 3330 3 
1652 3330 3329 1 
1653 3036 3035 1 
1654 3296 3036 3 
1655 3065 3066 1 
1656 3065 3325 2 
1657 3299 3300 1 
1658 2839 3329 2 
1659 3295 3296 1 
1660 3795 3796 1 
1661 3791 3792 1 
1662 3541 3791 2 
1663 3332 3776 3 
1664 3776 3775 1 
1665 3804 3803 1 
1666 4052 3804 3 
1667 3331 3332 1 
1668 3807 3808 1 
1669 3781 3782 1 
1670 4816 4310 3 
1671 4310 4309 1 
1672 4034 4033 1 
1673 4044 4034 3 
1674 4317 4318 1 
1675 3555 3781 2 
1676 4058 4057 1 
1677 3568 4058 3 
1678 4069 4070 1 
1679 4817 4818 1 
1680 4545 4546 1 
1681 4053 4054 1 
1682 4053 4305 2 
1683 4305 4306 1 
1684 4801 4802 1 
1685 5312 4548 3 
1686 5073 5074 1 
1687 5047 5048 1 
1688 4567 4568 1 
1689 4567 5331 2 
1690 4548 4547 1 
1691 5048 5792 3 
1692 5792 5791 1 
1693 4537 4538 1 
1694 5299 5300 1 
1695 5309 5310 1 
1696 5271 5272 1 
1697 5063 5791 2 
1698 5063 5064 1 
1699 5043 5044 1 
1700 5043 5317 2 
1701 5317 5318 1 
1702 5272 5558 3 
1703 5558 5557 1 
1704 4573 4574 1 
1705 5531 5781 2 
1706 5781 5782 1 
1707 63 5557 2 
1708 73 74 1 
1709 5806 5805 1 
1710 6054 5806 3 
1711 5552 5542 3 
1712 5542 5541 1 
1713 5804 292 3 
1714 6055 6056 1 
1715 56 55 1 
1716 318 56 3 
1717 60 560 3 
1718 60 59 1 
1719 60 6056 3 
1720 57 58 1 
1721 57 6075 2 
1722 329 330 1 
1723 6093 6094 1 
1724 6075 6076 1 
1725 66 60 3 
1726 66 65 1 
1727 66 328 3 
1728 560 66 3 
1729 560 559 1 
1730 330 6056 3 
1731 6089 6090 1 
1732 311 312 1 
1733 83 307 2 
1734 783 784 1 
1735 1057 1058 1 
1736 41 42 1 
1737 1309 1315 2 
1738 1333 1334 1 
1739 1548 1754 3 
1740 1548 1547 1 
1741 1754 2032 3 
1742 1754 1753 1 
1743 2032 1548 3 
1744 2032 2031 1 
1745 1830 1829 1 
1746 1340 1830 3 
1747 1311 2083 2 
1748 1794 1312 3 
1749 2079 2080 1 
1750 1793 1794 1 
1751 1826 2070 3 
1752 2059 2060 1 
1753 2059 2287 2 