ITEM: TIMESTEP
68640
ITEM: NUMBER OF ENTRIES
7911
ITEM: BOX BOUNDS pp pp ff
0.0000000000000000e+00 7.2168784000000002e+01
0.0000000000000000e+00 7.2168784000000002e+01
0.0000000000000000e+00 1.2000000000000000e+01
ITEM: ENTRIES index c_1[1] c_1[2] c_1[3]
1 1006 6224 3 
2 1006 1005 1 
3 1006 6008 3 
4 6224 250 3 
5 6224 6223 1 
6 6008 6224 3 
7 6008 6007 1 
8 250 6008 3 
9 250 249 1 
10 250 1006 3 
11 244 243 1 
12 6002 244 3 
13 748 747 1 
14 6052 748 3 
15 233 269 2 
16 1240 6 3 
17 269 270 1 
18 1239 1240 1 
19 485 1239 2 
20 1737 1738 1 
21 1769 1770 1 
22 1020 536 3 
23 1020 1019 1 
24 536 1002 3 
25 536 535 1 
26 536 1758 3 
27 1002 1020 3 
28 1002 1001 1 
29 1002 1758 3 
30 1758 1020 3 
31 1758 1757 1 
32 2741 2742 1 
33 2011 2741 2 
34 2742 1752 3 
35 1752 1751 1 
36 3985 4257 2 
37 4257 4258 1 
38 3511 3512 1 
39 5244 5243 1 
40 4736 5244 3 
41 4735 4736 1 
42 5731 5732 1 
43 474 6014 3 
44 474 473 1 
45 6018 474 3 
46 6018 6017 1 
47 6014 6018 3 
48 6014 6013 1 
49 24 474 3 
50 24 23 1 
51 24 6018 3 
52 24 6014 3 
53 29 251 2 
54 6038 6037 1 
55 5784 6038 3 
56 309 513 2 
57 6001 6002 1 
58 6001 6009 2 
59 473 525 2 
60 525 526 1 
61 522 521 1 
62 522 768 3 
63 768 1022 3 
64 502 1022 3 
65 502 516 3 
66 270 522 3 
67 270 768 3 
68 270 526 3 
69 284 283 1 
70 284 502 3 
71 516 284 3 
72 1021 1022 1 
73 535 1021 2 
74 1019 1779 2 
75 1054 1308 3 
76 1054 1053 1 
77 1308 760 3 
78 1308 1307 1 
79 1503 2761 2 
80 2271 2763 2 
81 2252 2732 3 
82 2252 2251 1 
83 2252 2762 3 
84 2511 2512 1 
85 2511 2767 2 
86 2518 3262 3 
87 2518 2517 1 
88 2518 3788 3 
89 3029 4023 2 
90 4012 3770 3 
91 3770 3769 1 
92 4809 4810 1 
93 4517 4809 2 
94 4525 4789 2 
95 5238 6246 3 
96 5238 5237 1 
97 4488 5238 3 
98 4488 4487 1 
99 6246 4488 3 
100 6246 6245 1 
101 4243 4495 2 
102 15 499 2 
103 5003 5515 2 
104 6011 6021 2 
105 240 5796 3 
106 5796 5795 1 
107 261 531 2 
108 239 240 1 
109 239 5539 2 
110 18 5788 3 
111 5788 5787 1 
112 5765 6013 2 
113 521 1067 2 
114 1067 1068 1 
115 1278 1268 3 
116 1278 1277 1 
117 1278 1760 3 
118 1278 1536 3 
119 1536 1268 3 
120 1536 1535 1 
121 2961 2962 1 
122 2962 3256 3 
123 3256 3255 1 
124 2272 2271 1 
125 2546 2272 3 
126 2552 3784 3 
127 3784 3783 1 
128 3309 3310 1 
129 3263 3535 2 
130 3031 3309 2 
131 4036 4035 1 
132 3746 3745 1 
133 3746 4036 3 
134 4026 3746 3 
135 4026 4036 3 
136 4041 4265 2 
137 4772 5024 3 
138 4772 4771 1 
139 5024 4518 3 
140 5024 5023 1 
141 4518 4772 3 
142 4518 4517 1 
143 4316 4790 3 
144 5001 5263 2 
145 5040 5582 3 
146 5040 5039 1 
147 17 18 1 
148 6012 5772 3 
149 6012 6011 1 
150 252 6012 3 
151 252 251 1 
152 252 5768 3 
153 5768 5772 3 
154 5768 5767 1 
155 5768 6012 3 
156 5772 252 3 
157 5772 5771 1 
158 5540 542 3 
159 5540 5539 1 
160 5540 5780 3 
161 20 1330 3 
162 1330 1329 1 
163 1760 1536 3 
164 1760 1759 1 
165 1268 1760 3 
166 1268 1267 1 
167 289 1759 2 
168 1267 1549 2 
169 290 2290 3 
170 290 289 1 
171 794 290 3 
172 794 793 1 
173 2290 794 3 
174 2290 2289 1 
175 1828 2328 3 
176 1828 1827 1 
177 1322 2574 3 
178 1322 1321 1 
179 1322 2328 3 
180 1322 1828 3 
181 2574 1828 3 
182 2574 2573 1 
183 2545 2546 1 
184 1321 2545 2 
185 1520 2296 3 
186 1520 1519 1 
187 1520 2818 3 
188 2818 2296 3 
189 2818 2817 1 
190 2296 2314 3 
191 2296 2295 1 
192 2314 1520 3 
193 2314 2313 1 
194 2314 2818 3 
195 3996 4006 3 
196 3996 3995 1 
197 4042 3996 3 
198 4042 4041 1 
199 3312 3311 1 
200 3312 3804 3 
201 4043 4044 1 
202 3311 3547 2 
203 4052 4051 1 
204 4052 3312 3 
205 3804 4052 3 
206 4554 4553 1 
207 4802 4554 3 
208 4763 5023 2 
209 4567 5331 2 
210 4567 4568 1 
211 4767 4783 2 
212 5988 5987 1 
213 1551 1552 1 
214 1532 1570 3 
215 1532 1531 1 
216 1532 2542 3 
217 1570 1554 3 
218 1570 1569 1 
219 1570 2542 3 
220 1554 1532 3 
221 1554 1553 1 
222 2542 1554 3 
223 2542 2541 1 
224 1333 2307 2 
225 1823 2289 2 
226 1539 1791 2 
227 2328 2574 3 
228 2328 2327 1 
229 1540 1572 3 
230 1540 1539 1 
231 2035 3587 2 
232 3305 3581 2 
233 3785 3786 1 
234 3785 4043 2 
235 4291 4587 2 
236 4801 4802 1 
237 4568 4768 3 
238 4768 4767 1 
239 5034 5988 3 
240 5302 5044 3 
241 5302 5301 1 
242 5814 5302 3 
243 5814 5813 1 
244 5043 5317 2 
245 5318 5317 1 
246 5544 5318 3 
247 5542 5820 3 
248 5542 5541 1 
249 5820 5552 3 
250 5820 5819 1 
251 5805 6043 2 
252 5552 5542 3 
253 5552 5551 1 
254 76 562 3 
255 76 75 1 
256 562 300 3 
257 562 561 1 
258 300 76 3 
259 300 299 1 
260 300 324 3 
261 6094 84 3 
262 6094 6093 1 
263 84 590 3 
264 84 83 1 
265 84 6070 3 
266 590 6094 3 
267 590 589 1 
268 560 66 3 
269 560 559 1 
270 560 6070 3 
271 328 330 3 
272 328 6056 3 
273 66 60 3 
274 66 65 1 
275 66 328 3 
276 1301 1569 2 
277 1334 2054 3 
278 1334 1333 1 
279 1314 1313 1 
280 2304 1314 3 
281 1572 1302 3 
282 1572 1571 1 
283 1302 1540 3 
284 1302 1301 1 
285 2291 2353 2 
286 1064 1572 3 
287 1064 1063 1 
288 1064 1540 3 
289 1064 1302 3 
290 2353 2354 1 
291 3073 2843 2 
292 2810 2036 3 
293 2036 2035 1 
294 2793 2811 2 
295 2593 3565 2 
296 3300 2822 3 
297 3300 3299 1 
298 2822 3280 3 
299 2822 2821 1 
300 3280 3300 3 
301 3280 3279 1 
302 3582 4312 3 
303 3582 3581 1 
304 3331 3567 2 
305 4815 4816 1 
306 3568 4058 3 
307 3568 3567 1 
308 3568 4300 3 
309 4058 4292 3 
310 4058 4057 1 
311 4300 4058 3 
312 4300 4299 1 
313 4292 3568 3 
314 4292 4291 1 
315 4292 4300 3 
316 4816 4310 3 
317 4310 4309 1 
318 4309 4543 2 
319 5563 5811 2 
320 5819 6083 2 
321 5559 6053 2 
322 5567 5781 2 
323 5781 5782 1 
324 5806 6054 3 
325 5806 5805 1 
326 5806 5826 3 
327 5826 6054 3 
328 5826 5825 1 
329 6054 354 3 
330 6054 6053 1 
331 354 5806 3 
332 354 353 1 
333 354 5826 3 
334 324 76 3 
335 324 323 1 
336 324 562 3 
337 6095 6096 1 
338 83 307 2 
339 68 826 3 
340 68 67 1 
341 68 610 3 
342 1076 68 3 
343 1076 1075 1 
344 610 1076 3 
345 610 609 1 
346 610 826 3 
347 826 1076 3 
348 826 825 1 
349 1092 1814 3 
350 1092 1091 1 
351 1092 1102 3 
352 1814 596 3 
353 1814 1813 1 
354 596 1092 3 
355 596 595 1 
356 1102 596 3 
357 1102 1101 1 
358 1102 1814 3 
359 798 314 3 
360 798 797 1 
361 1560 1078 3 
362 1560 1559 1 
363 1078 844 3 
364 1078 1077 1 
365 844 1560 3 
366 844 843 1 
367 828 1832 3 
368 828 827 1 
369 1091 1103 2 
370 1832 1074 3 
371 1832 1831 1 
372 1074 828 3 
373 1074 1073 1 
374 2600 1816 3 
375 1816 1815 1 
376 1799 2069 2 
377 2354 2582 3 
378 2354 3038 3 
379 2582 2824 3 
380 3038 3037 1 
381 1790 2058 3 
382 1790 1789 1 
383 1790 2354 3 
384 2824 3038 3 
385 2312 2311 1 
386 2046 2312 3 
387 2046 2582 3 
388 2306 1790 3 
389 2306 2305 1 
390 2306 3352 3 
391 2058 2306 3 
392 2058 2057 1 
393 2058 3352 3 
394 1845 1846 1 
395 2809 2810 1 
396 2820 2794 3 
397 2820 2819 1 
398 3554 2820 3 
399 3554 3553 1 
400 2794 3554 3 
401 2794 2793 1 
402 2594 3056 3 
403 2594 2593 1 
404 2330 2594 3 
405 2330 2329 1 
406 3056 2330 3 
407 3056 3055 1 
408 3584 3583 1 
409 3596 3584 3 
410 3583 3599 2 
411 3848 3830 3 
412 3848 3847 1 
413 3830 3324 3 
414 3830 3829 1 
415 3324 3848 3 
416 3324 3323 1 
417 3822 4572 3 
418 3822 3821 1 
419 3822 4610 3 
420 3835 4057 2 
421 4853 4854 1 
422 5786 5596 3 
423 5786 5785 1 
424 5082 5786 3 
425 5082 5081 1 
426 5082 5596 3 
427 5082 5812 3 
428 5596 5812 3 
429 5596 5595 1 
430 5812 5786 3 
431 5812 5811 1 
432 5090 5052 3 
433 5052 5051 1 
434 5316 6088 3 
435 5315 5316 1 
436 5822 5838 3 
437 544 5564 3 
438 544 543 1 
439 6027 6028 1 
440 6027 6079 2 
441 81 82 1 
442 81 563 2 
443 308 307 1 
444 595 1107 2 
445 1069 1327 2 
446 1367 1368 1 
447 1341 1342 1 
448 1341 1831 2 
449 1083 1563 2 
450 1335 1336 1 
451 1335 1809 2 
452 2319 2320 1 
453 817 2319 2 
454 2074 1810 3 
455 2074 2073 1 
456 1810 2090 3 
457 1810 1809 1 
458 1812 1810 3 
459 1812 1811 1 
460 1812 2074 3 
461 1812 2090 3 
462 2090 2074 3 
463 2090 2089 1 
464 1600 1599 1 
465 1600 2064 3 
466 1600 2368 3 
467 2320 1600 3 
468 2320 2368 3 
469 3351 3352 1 
470 2081 2089 2 
471 2823 2824 1 
472 2082 2081 1 
473 2045 2046 1 
474 2045 3043 2 
475 3037 3095 2 
476 2816 2082 3 
477 2845 2863 2 
478 3050 3308 3 
479 3847 3829 2 
480 4572 3850 3 
481 4572 4571 1 
482 4610 4572 3 
483 4610 4609 1 
484 3850 3822 3 
485 3850 3849 1 
486 3850 4610 3 
487 4117 4118 1 
488 4117 4341 2 
489 4355 4603 2 
490 5346 4340 3 
491 5346 5345 1 
492 4604 5346 3 
493 4604 4603 1 
494 4340 4604 3 
495 4340 4339 1 
496 5801 5802 1 
497 5801 6103 2 
498 5051 5573 2 
499 5607 6107 2 
500 858 876 3 
501 858 857 1 
502 5616 906 3 
503 5616 5615 1 
504 6144 5616 3 
505 6144 6143 1 
506 906 6144 3 
507 906 905 1 
508 1350 858 3 
509 1350 1349 1 
510 876 1350 3 
511 876 875 1 
512 115 857 2 
513 116 115 1 
514 90 116 3 
515 82 564 3 
516 82 840 3 
517 840 839 1 
518 839 1337 2 
519 1573 1574 1 
520 1113 1573 2 
521 1368 1596 3 
522 1586 1585 1 
523 1336 1860 3 
524 1336 1596 3 
525 1336 1342 3 
526 1596 1595 1 
527 1342 1596 3 
528 1342 1860 3 
529 848 1368 3 
530 848 1586 3 
531 1574 1586 3 
532 1574 1860 3 
533 1582 1084 3 
534 1582 1581 1 
535 2064 2368 3 
536 2064 2120 3 
537 2120 818 3 
538 2120 2119 1 
539 1852 1394 3 
540 2063 2064 1 
541 2367 2368 1 
542 1811 2623 2 
543 2109 2607 2 
544 2815 2816 1 
545 1819 2577 2 
546 2364 2864 3 
547 2364 2363 1 
548 2364 2894 3 
549 2342 2864 3 
550 2342 2341 1 
551 2342 2364 3 
552 2864 2894 3 
553 2864 2863 1 
554 2894 2342 3 
555 2894 2893 1 
556 2095 2096 1 
557 2095 2591 2 
558 2351 2357 2 
559 2357 2358 1 
560 3864 3092 3 
561 3864 3863 1 
562 3606 3864 3 
563 3606 3605 1 
564 3092 3606 3 
565 3092 3091 1 
566 4570 4842 3 
567 4570 4569 1 
568 4570 4590 3 
569 4570 4608 3 
570 4590 4842 3 
571 4590 4589 1 
572 4105 4609 2 
573 4842 4608 3 
574 4842 4841 1 
575 4113 4855 2 
576 4595 5093 2 
577 832 5638 3 
578 832 831 1 
579 5638 586 3 
580 5638 5637 1 
581 852 851 1 
582 586 832 3 
583 586 585 1 
584 1080 852 3 
585 5846 6108 3 
586 6125 6126 1 
587 6126 334 3 
588 1851 1852 1 
589 1869 1870 1 
590 1605 1869 2 
591 1394 1393 1 
592 1849 1850 1 
593 1589 1849 2 
594 1393 2123 2 
595 1617 2855 2 
596 1351 2127 2 
597 2128 2136 3 
598 2128 2127 1 
599 2825 3339 2 
600 2826 2862 3 
601 2826 2825 1 
602 2862 3084 3 
603 2862 2861 1 
604 3084 2826 3 
605 3084 3083 1 
606 2366 2365 1 
607 3372 3910 3 
608 3862 3624 3 
609 3624 3623 1 
610 3910 3909 1 
611 3371 3372 1 
612 4363 4364 1 
613 3873 4363 2 
614 3111 3591 2 
615 3591 3592 1 
616 2841 3333 2 
617 2335 3123 2 
618 4608 4590 3 
619 4608 4607 1 
620 4342 4122 3 
621 4342 4822 3 
622 4342 4341 1 
623 2842 4350 3 
624 2842 2841 1 
625 4822 4346 3 
626 4822 4821 1 
627 4121 4607 2 
628 4346 4342 3 
629 4346 4345 1 
630 3088 2842 3 
631 3088 3087 1 
632 3088 4106 3 
633 4122 4822 3 
634 4122 4346 3 
635 4122 4121 1 
636 4106 2842 3 
637 4106 4105 1 
638 4106 4350 3 
639 4350 3088 3 
640 4350 4349 1 
641 4332 4100 3 
642 4332 4331 1 
643 4622 4621 1 
644 4622 4844 3 
645 4856 4332 3 
646 4856 4855 1 
647 4890 5354 3 
648 4890 4889 1 
649 4594 4622 3 
650 4621 4627 2 
651 4100 4856 3 
652 4100 4099 1 
653 4324 4100 3 
654 4324 4323 1 
655 4324 4332 3 
656 4324 4856 3 
657 4844 4890 3 
658 4376 4844 3 
659 4376 5354 3 
660 4376 4592 3 
661 5354 4592 3 
662 5354 5353 1 
663 4323 5349 2 
664 5349 5350 1 
665 5832 5831 1 
666 4596 4595 1 
667 5371 6119 2 
668 6119 6120 1 
669 5597 5598 1 
670 5597 5637 2 
671 1079 1080 1 
672 1079 1355 2 
673 1610 140 3 
674 140 139 1 
675 1601 1602 1 
676 1862 1590 3 
677 1862 1861 1 
678 1590 2376 3 
679 1590 1589 1 
680 2376 1862 3 
681 2376 2375 1 
682 1132 3134 3 
683 1132 1131 1 
684 3134 2372 3 
685 3134 3133 1 
686 2372 1132 3 
687 2372 2371 1 
688 3340 2616 3 
689 3340 3339 1 
690 2856 1858 3 
691 2856 2855 1 
692 2856 3340 3 
693 2616 2856 3 
694 2616 2615 1 
695 1858 1857 1 
696 1858 3340 3 
697 1858 2616 3 
698 1847 1848 1 
699 1847 2615 2 
700 3376 4146 3 
701 3376 3375 1 
702 3144 3376 3 
703 3144 3143 1 
704 4146 3144 3 
705 4146 4145 1 
706 3135 3909 2 
707 3135 3136 1 
708 3124 2336 3 
709 3124 3123 1 
710 3124 3874 3 
711 3874 3884 3 
712 3874 3873 1 
713 2336 3884 3 
714 2336 2335 1 
715 2336 3874 3 
716 3884 3124 3 
717 3884 3883 1 
718 3625 3626 1 
719 3625 3851 2 
720 3626 4370 3 
721 3626 4870 3 
722 3626 4104 3 
723 4870 4370 3 
724 4870 4869 1 
725 4104 4870 3 
726 4104 4103 1 
727 4370 4104 3 
728 4370 4369 1 
729 5138 5612 3 
730 5612 5611 1 
731 5854 5832 3 
732 5611 5841 2 
733 113 341 2 
734 6120 5842 3 
735 5842 5841 1 
736 102 6086 3 
737 102 101 1 
738 102 878 3 
739 1356 1106 3 
740 1356 1355 1 
741 1432 1356 3 
742 1432 1431 1 
743 1106 1432 3 
744 1106 1105 1 
745 615 1431 2 
746 1372 1371 1 
747 6142 1372 3 
748 1650 1649 1 
749 2169 2170 1 
750 1407 2169 2 
751 2406 2640 3 
752 2406 2405 1 
753 2362 1642 3 
754 1892 1876 3 
755 1892 1891 1 
756 2166 1892 3 
757 2166 2165 1 
758 2408 2406 3 
759 2408 2407 1 
760 2640 2408 3 
761 2640 2639 1 
762 1642 1641 1 
763 2903 3133 2 
764 2903 2904 1 
765 1861 2113 2 
766 2904 2390 3 
767 1895 2401 2 
768 2390 2389 1 
769 3099 3100 1 
770 3370 3369 1 
771 3136 2878 3 
772 2878 2877 1 
773 3375 3883 2 
774 3622 3621 1 
775 3621 4421 2 
776 4103 4115 2 
777 5122 4120 3 
778 5122 5121 1 
779 4120 5356 3 
780 4120 4119 1 
781 5356 5122 3 
782 5356 5355 1 
783 4891 4892 1 
784 5121 5143 2 
785 5625 5626 1 
786 4371 5625 2 
787 124 6114 3 
788 124 123 1 
789 124 128 3 
790 6114 390 3 
791 6114 6113 1 
792 128 6114 3 
793 128 127 1 
794 128 390 3 
795 1105 1135 2 
796 1136 1135 1 
797 416 144 3 
798 416 415 1 
799 416 642 3 
800 144 6148 3 
801 144 143 1 
802 642 144 3 
803 642 641 1 
804 642 6148 3 
805 6148 416 3 
806 6148 6147 1 
807 622 1144 3 
808 1144 1143 1 
809 1662 1650 3 
810 1641 2395 2 
811 2622 1364 3 
812 2622 2621 1 
813 1896 1670 3 
814 1896 1895 1 
815 1896 2622 3 
816 1670 1364 3 
817 1670 1669 1 
818 1670 2622 3 
819 2648 1938 3 
820 2648 2647 1 
821 1364 1896 3 
822 1364 1363 1 
823 3161 4141 2 
824 3161 3162 1 
825 3162 3370 3 
826 4924 3622 3 
827 3886 2912 3 
828 3885 3886 1 
829 3885 3891 2 
830 2912 2911 1 
831 5132 3916 3 
832 5132 5131 1 
833 3916 3678 3 
834 3916 3915 1 
835 4136 3916 3 
836 4136 4135 1 
837 4136 5132 3 
838 4393 5131 2 
839 4406 4405 1 
840 4406 4932 3 
841 4932 4931 1 
842 4932 5410 3 
843 5410 4406 3 
844 5393 5394 1 
845 5394 4678 3 
846 5144 5143 1 
847 4675 4887 2 
848 5154 5144 3 
849 4877 4931 2 
850 5396 5148 3 
851 5396 5395 1 
852 4676 5396 3 
853 4676 4675 1 
854 5916 5624 3 
855 5916 5915 1 
856 5128 5916 3 
857 5128 5127 1 
858 5128 5910 3 
859 5910 5624 3 
860 5910 5909 1 
861 5910 5916 3 
862 5624 5128 3 
863 5624 5623 1 
864 121 123 2 
865 1134 1136 3 
866 1133 1134 1 
867 1133 6121 2 
868 1643 1673 2 
869 2129 2175 2 
870 1853 1854 1 
871 1853 2155 2 
872 2662 2648 3 
873 2662 2661 1 
874 1938 2662 3 
875 1938 1937 1 
876 1901 1903 2 
877 2652 2154 3 
878 2652 2651 1 
879 2898 2652 3 
880 2898 2897 1 
881 2154 2898 3 
882 2154 2153 1 
883 2651 2675 2 
884 2871 2907 2 
885 2430 2429 1 
886 2655 3151 2 
887 3163 3173 2 
888 3908 3670 3 
889 3908 3907 1 
890 3908 3914 3 
891 3914 3404 3 
892 3914 3913 1 
893 3404 3670 3 
894 3404 3403 1 
895 3404 3908 3 
896 3678 4136 3 
897 3678 3677 1 
898 3678 5132 3 
899 4154 3390 3 
900 4154 4153 1 
901 4412 4154 3 
902 4412 4411 1 
903 3390 4412 3 
904 3390 3389 1 
905 3677 4149 2 
906 2911 4131 2 
907 4893 5153 2 
908 5153 5154 1 
909 5926 5642 3 
910 5926 5925 1 
911 404 5926 3 
912 404 403 1 
913 5623 5895 2 
914 5642 404 3 
915 5642 5641 1 
916 655 6213 2 
917 6213 6214 1 
918 937 1207 2 
919 937 938 1 
920 2162 2161 1 
921 1181 1191 2 
922 2404 1902 3 
923 2404 2403 1 
924 1902 1936 3 
925 1902 1901 1 
926 1936 2200 3 
927 1936 1935 1 
928 1936 2404 3 
929 1435 1436 1 
930 1435 2447 2 
931 2200 1902 3 
932 2200 2199 1 
933 2200 2404 3 
934 2185 2193 2 
935 2417 2897 2 
936 2391 2631 2 
937 2908 2664 3 
938 2908 2907 1 
939 2663 2683 2 
940 2664 3170 3 
941 2664 2663 1 
942 3170 2908 3 
943 3170 3169 1 
944 3164 3666 3 
945 3164 3163 1 
946 3164 3388 3 
947 3666 3906 3 
948 3666 3665 1 
949 3388 3906 3 
950 3388 3387 1 
951 3388 3666 3 
952 3906 3164 3 
953 3906 3905 1 
954 3665 4147 2 
955 3413 3669 2 
956 5156 4962 3 
957 5156 5155 1 
958 4402 5156 3 
959 4402 4401 1 
960 4962 4402 3 
961 4962 4961 1 
962 4167 4457 2 
963 4894 5168 3 
964 4894 4893 1 
965 5168 4652 3 
966 5168 5167 1 
967 4652 4894 3 
968 4652 4651 1 
969 4195 5155 2 
970 5440 5940 3 
971 5440 5439 1 
972 5440 5914 3 
973 5914 5162 3 
974 5914 5913 1 
975 403 5389 2 
976 5390 5654 3 
977 5390 5389 1 
978 420 5650 3 
979 420 419 1 
980 5650 5658 3 
981 5650 5649 1 
982 5658 420 3 
983 5658 5657 1 
984 163 6181 2 
985 172 914 3 
986 172 171 1 
987 172 430 3 
988 172 674 3 
989 430 914 3 
990 430 429 1 
991 914 674 3 
992 914 913 1 
993 674 430 3 
994 674 673 1 
995 451 452 1 
996 451 5993 2 
997 183 691 2 
998 6214 440 3 
999 440 439 1 
1000 452 214 3 
1001 425 447 2 
1002 692 702 3 
1003 692 691 1 
1004 692 952 3 
1005 931 932 1 
1006 932 426 3 
1007 1454 1453 1 
1008 1666 1454 3 
1009 2186 2185 1 
1010 2928 2186 3 
1011 1935 2927 2 
1012 2927 2928 1 
1013 2163 2164 1 
1014 2163 2199 2 
1015 2431 2437 2 
1016 3392 2198 3 
1017 3392 3391 1 
1018 2684 2902 3 
1019 2684 2683 1 
1020 2684 3392 3 
1021 2192 3186 3 
1022 2192 2191 1 
1023 2192 2674 3 
1024 2688 2722 3 
1025 2688 2687 1 
1026 2422 2688 3 
1027 2422 2421 1 
1028 2722 2422 3 
1029 2722 2721 1 
1030 2159 2421 2 
1031 2159 2160 1 
1032 3402 2900 3 
1033 2435 2669 2 
1034 2900 2899 1 
1035 3396 3912 3 
1036 3396 3395 1 
1037 4423 4961 2 
1038 4414 4914 3 
1039 4414 4413 1 
1040 5160 4414 3 
1041 5160 5159 1 
1042 4914 3938 3 
1043 4914 4913 1 
1044 4914 5160 3 
1045 5166 4390 3 
1046 5166 5165 1 
1047 5370 5166 3 
1048 5370 5369 1 
1049 5370 5416 3 
1050 4390 5370 3 
1051 4390 4389 1 
1052 4390 5416 3 
1053 5416 5166 3 
1054 5416 5415 1 
1055 5183 5453 2 
1056 5413 5659 2 
1057 5443 5691 2 
1058 5184 5183 1 
1059 5672 5670 3 
1060 6218 424 3 
1061 5426 5184 3 
1062 424 423 1 
1063 5670 5669 1 
1064 5660 5956 3 
1065 5660 5659 1 
1066 5444 5660 3 
1067 5444 5443 1 
1068 5956 5444 3 
1069 5956 5955 1 
1070 689 893 2 
1071 670 1178 3 
1072 670 669 1 
1073 1178 894 3 
1074 1178 1177 1 
1075 894 670 3 
1076 894 893 1 
1077 6195 6196 1 
1078 193 6195 2 
1079 669 945 2 
1080 405 913 2 
1081 214 213 1 
1082 426 425 1 
1083 1665 1666 1 
1084 1453 1665 2 
1085 671 921 2 
1086 1663 1664 1 
1087 1663 2721 2 
1088 4672 4671 1 
1089 3976 3460 3 
1090 4220 4672 3 
1091 3429 3693 2 
1092 3930 4166 3 
1093 3930 3929 1 
1094 3947 4709 2 
1095 4683 4945 2 
1096 3938 4414 3 
1097 3938 3937 1 
1098 3938 5160 3 
1099 4447 5217 2 
1100 4913 5165 2 
1101 194 193 1 
1102 196 194 3 
1103 6198 5960 3 
1104 6198 6197 1 
1105 693 1177 2 
1106 5960 450 3 
1107 5960 5959 1 
1108 450 6198 3 
1109 450 449 1 
1110 406 405 1 
1111 6196 406 3 
1112 458 436 3 
1113 458 457 1 
1114 1180 458 3 
1115 1180 1179 1 
1116 694 693 1 
1117 457 6199 2 
1118 177 1189 2 
1119 709 1461 2 
1120 1225 1421 2 
1121 726 1214 3 
1122 726 725 1 
1123 726 1226 3 
1124 2204 726 3 
1125 2204 2203 1 
1126 1214 2204 3 
1127 1214 1213 1 
1128 1226 1214 3 
1129 1226 1225 1 
1130 1226 2204 3 
1131 1711 1943 2 
1132 1720 1719 1 
1133 1720 2206 3 
1134 1943 1944 1 
1135 1966 1965 1 
1136 2172 1966 3 
1137 2703 4201 2 
1138 3980 3979 1 
1139 3458 3712 3 
1140 3458 3457 1 
1141 3474 3980 3 
1142 3459 3957 2 
1143 3712 3928 3 
1144 3712 3711 1 
1145 3928 3458 3 
1146 3928 3927 1 
1147 3975 3976 1 
1148 3190 3189 1 
1149 3460 3459 1 
1150 3690 3888 3 
1151 3690 3689 1 
1152 3498 3690 3 
1153 3498 3497 1 
1154 4163 4164 1 
1155 3888 3498 3 
1156 3888 3887 1 
1157 3421 3422 1 
1158 3421 3711 2 
1159 3939 4163 2 
1160 4164 4450 3 
1161 4956 3932 3 
1162 4956 4955 1 
1163 3694 4956 3 
1164 3694 3693 1 
1165 3694 3934 3 
1166 3694 3932 3 
1167 3934 4956 3 
1168 3934 3933 1 
1169 3932 3934 3 
1170 3932 3931 1 
1171 5202 4710 3 
1172 4698 4448 3 
1173 4698 4697 1 
1174 4210 4698 3 
1175 4210 4209 1 
1176 4448 4210 3 
1177 4448 4447 1 
1178 4946 5190 3 
1179 4946 4945 1 
1180 5190 4708 3 
1181 5190 5189 1 
1182 4708 4946 3 
1183 4708 4707 1 
1184 5714 5713 1 
1185 5724 5714 3 
1186 5963 5979 2 
1187 5470 5696 3 
1188 5470 5469 1 
1189 5696 5230 3 
1190 5696 5695 1 
1191 5696 6240 3 
1192 6240 5470 3 
1193 6240 6239 1 
1194 5230 5470 3 
1195 5230 5229 1 
1196 5230 6240 3 
1197 6174 5206 3 
1198 6174 6173 1 
1199 462 198 3 
1200 198 197 1 
1201 6197 6219 2 
1202 221 222 1 
1203 221 431 2 
1204 178 177 1 
1205 222 178 3 
1206 699 1215 2 
1207 1457 1479 2 
1208 6200 472 3 
1209 6200 6199 1 
1210 1714 6200 3 
1211 1714 1713 1 
1212 216 6200 3 
1213 216 215 1 
1214 216 1714 3 
1215 472 216 3 
1216 472 471 1 
1217 472 1714 3 
1218 1480 1462 3 
1219 1480 1479 1 
1220 1462 1496 3 
1221 1462 1461 1 
1222 1496 1480 3 
1223 1496 1495 1 
1224 1422 1496 3 
1225 1422 1421 1 
1226 1422 1480 3 
1227 1422 1462 3 
1228 1964 1720 3 
1229 1964 1963 1 
1230 1964 2206 3 
1231 1942 1964 3 
1232 1942 1941 1 
1233 1942 2206 3 
1234 2700 3472 3 
1235 2700 2699 1 
1236 3984 2450 3 
1237 3984 3983 1 
1238 2929 2930 1 
1239 3424 2946 3 
1240 3424 3423 1 
1241 2704 3424 3 
1242 2704 2703 1 
1243 3226 2704 3 
1244 3226 3225 1 
1245 3226 3424 3 
1246 2946 2704 3 
1247 2946 2945 1 
1248 2946 3226 3 
1249 3482 4202 3 
1250 3482 3481 1 
1251 3462 3482 3 
1252 3462 3461 1 
1253 3462 4436 3 
1254 4436 3482 3 
1255 4436 4435 1 
1256 3714 3713 1 
1257 3944 3714 3 
1258 3933 3959 2 
1259 4225 4935 2 
1260 4969 4987 2 
1261 5441 5442 1 
1262 5459 5469 2 
1263 5245 5246 1 
1264 5245 5961 2 
1265 5713 6005 2 
1266 465 6239 2 
1267 5463 5937 2 
1268 1459 1709 2 
1269 2236 1736 3 
1270 2236 2235 1 
1271 2730 2236 3 
1272 2730 2729 1 
1273 1460 2216 3 
1274 1460 1459 1 
1275 1460 2462 3 
1276 1982 1460 3 
1277 1982 1981 1 
1278 1982 2462 3 
1279 2216 1982 3 
1280 2216 2215 1 
1281 2216 2230 3 
1282 2230 2462 3 
1283 2460 2700 3 
1284 2460 2459 1 
1285 3472 2460 3 
1286 3472 3471 1 
1287 2232 2460 3 
1288 2232 2231 1 
1289 2232 2700 3 
1290 2232 3472 3 
1291 2953 2954 1 
1292 2189 2953 2 
1293 2757 3461 2 
1294 4970 4260 3 
1295 4970 4969 1 
1296 4480 4970 3 
1297 4480 4479 1 
1298 4479 4713 2 
1299 4218 4446 3 
1300 4218 4217 1 
1301 4507 4737 2 
1302 5246 5248 3 
1303 5248 5247 1 
1304 230 5992 3 
1305 230 229 1 
1306 5468 230 3 
1307 5468 5467 1 
1308 5992 5468 3 
1309 5992 5991 1 
1310 202 5468 3 
1311 202 201 1 
1312 202 5992 3 
1313 202 230 3 
1314 5464 232 3 
1315 5464 5463 1 
1316 466 5464 3 
1317 466 465 1 
1318 232 466 3 
1319 232 231 1 
1320 231 5973 2 
1321 5477 5478 1 
1322 5477 5719 2 
1323 504 6238 3 
1324 504 503 1 
1325 6238 6250 3 
1326 6238 6237 1 
1327 6250 504 3 
1328 6250 6249 1 
1329 971 972 1 
1330 45 5999 2 
1331 45 46 1 
1332 972 1004 3 
1333 1004 750 3 
1334 1004 1003 1 
1335 734 1004 3 
1336 734 733 1 
1337 734 972 3 
1338 750 734 3 
1339 750 749 1 
1340 476 972 3 
1341 476 750 3 
1342 260 259 1 
1343 260 476 3 
1344 988 260 3 
1345 1468 1726 3 
1346 983 1245 2 
1347 1245 1246 1 
1348 1253 1981 2 
1349 4260 4480 3 
1350 4260 4259 1 
1351 3773 4747 2 
1352 4983 4984 1 
1353 4983 4253 2 
1354 4259 4721 2 
1355 4232 4231 1 
1356 4016 4232 3 
1357 4722 4990 3 
1358 4722 4721 1 
1359 4284 5222 3 
1360 4284 4283 1 
1361 4284 4722 3 
1362 4284 4990 3 
1363 5222 4722 3 
1364 5222 5221 1 
1365 4231 4751 2 
1366 4990 5222 3 
1367 4990 4989 1 
1368 4223 4224 1 
1369 4223 4757 2 
1370 5510 3752 3 
1371 5510 5509 1 
1372 3752 4978 3 
1373 3752 3751 1 
1374 5233 5509 2 
1375 4733 4734 1 
1376 4733 5025 2 
1377 13 229 2 
1378 438 6238 3 
1379 438 437 1 
1380 438 504 3 
1381 438 6250 3 
1382 254 5982 3 
1383 254 253 1 
1384 254 6026 3 
1385 5982 508 3 
1386 5982 5981 1 
1387 508 254 3 
1388 508 507 1 
1389 508 6026 3 
1390 236 242 3 
1391 236 5974 3 
1392 236 235 1 
1393 5974 226 3 
1394 5974 5973 1 
1395 242 5974 3 
1396 242 226 3 
1397 242 241 1 
1398 6026 5982 3 
1399 6026 6025 1 
1400 463 971 2 
1401 5730 5729 1 
1402 243 475 2 
1403 475 476 1 
1404 46 5730 3 
1405 5 733 2 
1406 753 754 1 
1407 259 753 2 
1408 6 5 1 
1409 506 234 3 
1410 723 989 2 
1411 1747 1757 2 
1412 3510 3010 3 
1413 3510 3509 1 
1414 3010 3986 3 
1415 3010 3009 1 
1416 3986 3510 3 
1417 3986 3985 1 
1418 2490 2248 3 
1419 2490 2489 1 
1420 2490 3448 3 
1421 2248 3012 3 
1422 2248 2247 1 
1423 2248 3448 3 
1424 3012 2490 3 
1425 3012 3011 1 
1426 3448 3012 3 
1427 3448 3447 1 
1428 2748 2210 3 
1429 2748 2747 1 
1430 3512 3526 3 
1431 3526 3525 1 
1432 3015 3525 2 
1433 4757 4758 1 
1434 4530 4462 3 
1435 4530 4529 1 
1436 4002 4462 3 
1437 4002 4001 1 
1438 4002 4530 3 
1439 4002 4748 3 
1440 4462 4748 3 
1441 4462 4461 1 
1442 5027 5028 1 
1443 4748 4530 3 
1444 4748 4747 1 
1445 4250 4249 1 
1446 3454 5500 3 
1447 3454 3453 1 
1448 4999 5237 2 
1449 3771 4723 2 
1450 5006 5764 3 
1451 5006 5005 1 
1452 5764 4782 3 
1453 5764 5763 1 
1454 5502 5501 1 
1455 5508 4994 3 
1456 6228 5480 3 
1457 6228 6227 1 
1458 5480 14 3 
1459 5480 5479 1 
1460 5981 6007 2 
1461 226 236 3 
1462 226 225 1 
1463 5732 266 3 
1464 249 5517 2 
1465 310 309 1 
1466 764 310 3 
1467 487 6041 2 
1468 247 5753 2 
1469 488 26 3 
1470 488 487 1 
1471 6051 6052 1 
1472 515 516 1 
1473 515 1263 2 
1474 1011 1483 2 
1475 1024 1023 1 
1476 268 1024 3 
1477 11 6051 2 
1478 1524 1750 3 
1479 1524 1523 1 
1480 4 1500 3 
1481 4 3 1 
1482 4 1750 3 
1483 4 1524 3 
1484 3 747 2 
1485 297 1749 2 
1486 509 1243 2 
1487 1013 1241 2 
1488 510 766 3 
1489 510 509 1 
1490 1241 1242 1 
1491 741 742 1 
1492 741 973 2 
1493 1724 1748 3 
1494 1724 1723 1 
1495 1724 2012 3 
1496 1748 1766 3 
1497 1748 1747 1 
1498 2012 1748 3 
1499 2012 2011 1 
1500 1766 1724 3 
1501 1766 1765 1 
1502 1766 2012 3 
1503 1786 1008 3 
1504 1786 1785 1 
1505 1280 1786 3 
1506 1280 1279 1 
1507 1008 1280 3 
1508 1008 1007 1 
1509 1008 1508 3 
1510 1508 1280 3 
1511 1508 1507 1 
1512 1508 1786 3 
1513 534 533 1 
1514 1507 2225 2 
1515 1723 2253 2 
1516 2269 2981 2 
1517 2279 2509 2 
1518 2280 2279 1 
1519 2280 2492 3 
1520 2280 2786 3 
1521 2254 2280 3 
1522 2254 2786 3 
1523 1518 2492 3 
1524 1518 2254 3 
1525 1518 2786 3 
1526 2001 2002 1 
1527 2001 2485 2 
1528 2507 2755 2 
1529 2536 2535 1 
1530 2768 2792 3 
1531 2768 2767 1 
1532 2792 3268 3 
1533 2792 2791 1 
1534 2496 2536 3 
1535 3268 2768 3 
1536 3268 3267 1 
1537 2251 2489 2 
1538 2535 3001 2 
1539 2495 2496 1 
1540 2777 3787 2 
1541 3484 2998 3 
1542 3484 3483 1 
1543 2998 2514 3 
1544 2998 2997 1 
1545 3261 3545 2 
1546 2778 3006 3 
1547 2778 2777 1 
1548 3002 2778 3 
1549 3002 3001 1 
1550 3002 3006 3 
1551 3006 2992 3 
1552 3006 3005 1 
1553 2992 2778 3 
1554 2992 2991 1 
1555 2992 3002 3 
1556 3546 3026 3 
1557 3546 3545 1 
1558 2995 3009 2 
1559 1996 1995 1 
1560 2746 1996 3 
1561 2798 3546 3 
1562 2798 2797 1 
1563 3523 4009 2 
1564 2983 2997 2 
1565 2983 2984 1 
1566 4024 4023 1 
1567 3270 4024 3 
1568 2984 4010 3 
1569 4258 3522 3 
1570 4010 4009 1 
1571 3522 3521 1 
1572 3278 4258 3 
1573 3278 3522 3 
1574 3756 3004 3 
1575 3756 3755 1 
1576 3004 3030 3 
1577 3004 3003 1 
1578 3030 3756 3 
1579 3030 3029 1 
1580 3030 3278 3 
1581 3003 3027 2 
1582 3759 3767 2 
1583 3992 3502 3 
1584 3543 3811 2 
1585 4237 4238 1 
1586 4017 4285 2 
1587 3502 3501 1 
1588 4018 3506 3 
1589 4018 4017 1 
1590 4018 4726 3 
1591 4504 4018 3 
1592 4504 4503 1 
1593 4504 4726 3 
1594 4285 4286 1 
1595 3506 4504 3 
1596 3506 3505 1 
1597 3527 3528 1 
1598 3527 3777 2 
1599 3501 3539 2 
1600 4726 3506 3 
1601 4726 4725 1 
1602 4286 4514 3 
1603 3505 3765 2 
1604 4749 4750 1 
1605 4749 5045 2 
1606 4750 4250 3 
1607 3766 3744 3 
1608 3766 3765 1 
1609 3766 4290 3 
1610 4245 4529 2 
1611 4744 3766 3 
1612 4744 4743 1 
1613 4289 4497 2 
1614 4290 4744 3 
1615 4290 4289 1 
1616 3744 4744 3 
1617 3744 3743 1 
1618 3744 4290 3 
1619 5046 5045 1 
1620 4509 4727 2 
1621 4786 5046 3 
1622 4785 4786 1 
1623 4007 4785 2 
1624 4510 5530 3 
1625 4510 4509 1 
1626 3772 4778 3 
1627 3772 3771 1 
1628 3772 4996 3 
1629 3772 4496 3 
1630 4996 4778 3 
1631 4996 4995 1 
1632 4496 4996 3 
1633 4496 4495 1 
1634 4778 4496 3 
1635 4778 4777 1 
1636 4493 4735 2 
1637 4494 5744 3 
1638 4494 4493 1 
1639 4494 5526 3 
1640 5013 5014 1 
1641 4773 5013 2 
1642 5014 5502 3 
1643 5741 5751 2 
1644 6019 6225 2 
1645 27 6033 2 
1646 500 16 3 
1647 500 499 1 
1648 6034 500 3 
1649 6034 6033 1 
1650 16 6034 3 
1651 16 15 1 
1652 5516 6016 3 
1653 5516 5515 1 
1654 30 6016 3 
1655 30 29 1 
1656 30 5516 3 
1657 5472 5748 3 
1658 5472 5471 1 
1659 5748 5734 3 
1660 5748 5747 1 
1661 5748 6232 3 
1662 5734 5472 3 
1663 5734 5733 1 
1664 5734 6232 3 
1665 6232 5472 3 
1666 6232 6231 1 
1667 5783 5795 2 
1668 5783 5784 1 
1669 6016 520 3 
1670 6016 6015 1 
1671 520 30 3 
1672 520 519 1 
1673 520 5516 3 
1674 1012 782 3 
1675 1012 1011 1 
1676 1012 1030 3 
1677 1012 1276 3 
1678 1030 782 3 
1679 1030 1029 1 
1680 1276 1030 3 
1681 1276 1275 1 
1682 763 764 1 
1683 34 248 3 
1684 34 33 1 
1685 34 6022 3 
1686 12 34 3 
1687 12 11 1 
1688 12 6022 3 
1689 6022 248 3 
1690 6022 6021 1 
1691 248 12 3 
1692 248 247 1 
1693 5471 6065 2 
1694 6065 6066 1 
1695 21 22 1 
1696 21 511 2 
1697 787 1029 2 
1698 271 763 2 
1699 782 1276 3 
1700 782 781 1 
1701 526 522 3 
1702 526 1022 3 
1703 33 501 2 
1704 501 502 1 
1705 781 1523 2 
1706 1244 778 3 
1707 1244 1243 1 
1708 1042 1244 3 
1709 1042 1041 1 
1710 1770 1270 3 
1711 1270 1269 1 
1712 47 48 1 
1713 47 517 2 
1714 778 1042 3 
1715 778 777 1 
1716 1033 1307 2 
1717 486 485 1 
1718 1034 2020 3 
1719 1034 1033 1 
1720 1525 1765 2 
1721 1780 1034 3 
1722 1780 1779 1 
1723 1242 486 3 
1724 760 1054 3 
1725 760 759 1 
1726 2020 1780 3 
1727 2020 2019 1 
1728 2024 2023 1 
1729 1746 1034 3 
1730 1746 1745 1 
1731 1746 1780 3 
1732 1746 2020 3 
1733 1744 2024 3 
1734 1512 534 3 
1735 2023 2293 2 
1736 1279 2019 2 
1737 1511 1512 1 
1738 1511 1743 2 
1739 1743 1744 1 
1740 2266 2770 3 
1741 2266 2265 1 
1742 2294 2266 3 
1743 2294 2293 1 
1744 2274 2266 3 
1745 2274 2273 1 
1746 2274 2294 3 
1747 2274 2770 3 
1748 2770 2294 3 
1749 2770 2769 1 
1750 1773 2297 2 
1751 2785 2786 1 
1752 2526 2764 3 