ITEM: TIMESTEP
42240
ITEM: NUMBER OF ENTRIES
7048
ITEM: BOX BOUNDS pp pp ff
0.0000000000000000e+00 7.2168784000000002e+01
0.0000000000000000e+00 7.2168784000000002e+01
0.0000000000000000e+00 1.2000000000000000e+01
ITEM: ENTRIES index c_1[1] c_1[2] c_1[3]
1 244 243 1 
2 6002 244 3 
3 525 526 1 
4 488 487 1 
5 1239 1240 1 
6 485 1239 2 
7 1240 6 3 
8 1525 1526 1 
9 1525 1765 2 
10 2001 2002 1 
11 2001 2485 2 
12 1751 1752 1 
13 1751 2769 2 
14 2762 1504 3 
15 2762 2761 1 
16 1504 2252 3 
17 1504 1503 1 
18 2252 2732 3 
19 2252 2251 1 
20 2252 2762 3 
21 1503 2761 2 
22 2732 1504 3 
23 2732 2731 1 
24 2732 2762 3 
25 3512 3526 3 
26 3526 3525 1 
27 4012 3770 3 
28 3770 3769 1 
29 4286 4514 3 
30 4514 4513 1 
31 3015 3525 2 
32 4276 4048 3 
33 4276 4275 1 
34 4500 4276 3 
35 4500 4499 1 
36 4048 4500 3 
37 4048 4047 1 
38 4275 5525 2 
39 4999 5237 2 
40 4493 4735 2 
41 4735 4736 1 
42 4724 4723 1 
43 4742 4762 3 
44 4742 4741 1 
45 5530 4776 3 
46 5530 5529 1 
47 6001 6002 1 
48 6001 6009 2 
49 5795 5796 1 
50 5783 5795 2 
51 5783 5784 1 
52 474 6014 3 
53 474 473 1 
54 6018 474 3 
55 6018 6017 1 
56 6014 6018 3 
57 6014 6013 1 
58 5766 5765 1 
59 5766 6242 3 
60 26 488 3 
61 515 516 1 
62 522 521 1 
63 522 768 3 
64 270 522 3 
65 270 768 3 
66 270 526 3 
67 768 1022 3 
68 526 522 3 
69 526 1022 3 
70 759 777 2 
71 1019 1779 2 
72 2023 2293 2 
73 2961 2962 1 
74 3256 3255 1 
75 2962 3256 3 
76 2531 2731 2 
77 4257 4258 1 
78 3985 4257 2 
79 2511 2512 1 
80 2511 2767 2 
81 2784 2783 1 
82 3269 3270 1 
83 3511 3512 1 
84 2783 3269 2 
85 4011 4012 1 
86 3812 3016 3 
87 3812 3811 1 
88 3798 3812 3 
89 3798 3797 1 
90 3016 3798 3 
91 3016 3015 1 
92 4524 4523 1 
93 6246 4488 3 
94 6246 6245 1 
95 4488 5238 3 
96 4488 4487 1 
97 5238 6246 3 
98 5238 5237 1 
99 5767 5768 1 
100 6011 6021 2 
101 279 280 1 
102 273 541 2 
103 767 768 1 
104 767 1043 2 
105 545 553 2 
106 1308 760 3 
107 1308 1307 1 
108 1054 1308 3 
109 1054 1053 1 
110 760 1054 3 
111 760 759 1 
112 2024 2023 1 
113 1744 2024 3 
114 1281 1541 2 
115 1282 1774 3 
116 1282 1281 1 
117 1772 1282 3 
118 1772 1771 1 
119 1774 1772 3 
120 1774 1773 1 
121 2503 2504 1 
122 2503 2739 2 
123 1520 2296 3 
124 1520 1519 1 
125 1520 2818 3 
126 2296 2314 3 
127 2296 2295 1 
128 2314 1520 3 
129 2314 2313 1 
130 2314 2818 3 
131 2818 2296 3 
132 2818 2817 1 
133 2522 2532 3 
134 2522 2772 3 
135 3022 3021 1 
136 3496 3022 3 
137 3309 3310 1 
138 4024 4023 1 
139 3033 4061 2 
140 3274 3242 3 
141 3274 3273 1 
142 3274 3536 3 
143 3315 4035 2 
144 3032 3536 3 
145 3032 3031 1 
146 3032 3274 3 
147 3536 3242 3 
148 3536 3535 1 
149 3242 3032 3 
150 3242 3241 1 
151 3270 4024 3 
152 3795 3796 1 
153 3537 3795 2 
154 3539 3540 1 
155 4037 4038 1 
156 5540 542 3 
157 5540 5539 1 
158 5540 5780 3 
159 542 6030 3 
160 542 541 1 
161 6030 5540 3 
162 6030 6029 1 
163 5780 542 3 
164 5780 5779 1 
165 5780 6030 3 
166 554 546 3 
167 554 553 1 
168 546 792 3 
169 546 545 1 
170 1044 1048 3 
171 1044 1043 1 
172 540 1044 3 
173 540 539 1 
174 1048 540 3 
175 1048 1047 1 
176 296 786 3 
177 296 295 1 
178 534 533 1 
179 1539 1791 2 
180 2308 1290 3 
181 2308 2307 1 
182 1290 1792 3 
183 1290 1289 1 
184 1290 1542 3 
185 1321 1322 1 
186 1321 2545 2 
187 2545 2546 1 
188 2564 2776 3 
189 2564 2563 1 
190 2776 2044 3 
191 2776 2775 1 
192 2044 2564 3 
193 2044 2043 1 
194 2313 2775 2 
195 2563 2817 2 
196 3292 3291 1 
197 3310 3292 3 
198 3283 3319 2 
199 4044 4034 3 
200 4034 4033 1 
201 4052 4051 1 
202 4052 3312 3 
203 3804 4052 3 
204 3312 3311 1 
205 3312 3804 3 
206 3785 3786 1 
207 3785 4043 2 
208 4043 4044 1 
209 4293 4557 2 
210 4294 5524 3 
211 4294 4293 1 
212 4558 5032 3 
213 4558 4557 1 
214 4558 5054 3 
215 4558 5254 3 
216 4296 4294 3 
217 4296 4295 1 
218 5032 5054 3 
219 5032 5031 1 
220 4767 4783 2 
221 5054 5254 3 
222 5054 5053 1 
223 5524 4296 3 
224 5524 5523 1 
225 6065 6066 1 
226 6044 538 3 
227 6044 6043 1 
228 538 322 3 
229 538 537 1 
230 322 6044 3 
231 322 321 1 
232 47 48 1 
233 47 517 2 
234 794 290 3 
235 1301 1569 2 
236 290 289 1 
237 1302 1540 3 
238 1302 1301 1 
239 1540 1572 3 
240 1540 1539 1 
241 1064 1572 3 
242 1064 1063 1 
243 1064 1540 3 
244 1064 1302 3 
245 1572 1302 3 
246 1572 1571 1 
247 1571 1781 2 
248 1333 2307 2 
249 1782 1781 1 
250 2054 2332 3 
251 2054 2053 1 
252 1822 1782 3 
253 1334 2054 3 
254 1334 1333 1 
255 1796 2564 3 
256 1796 1795 1 
257 1796 2776 3 
258 1796 2044 3 
259 1800 2292 3 
260 1800 1799 1 
261 1800 2022 3 
262 2328 1828 3 
263 2328 2327 1 
264 1795 2053 2 
265 3291 3299 2 
266 3803 3804 1 
267 3803 4051 2 
268 4291 4587 2 
269 4058 4292 3 
270 4058 4057 1 
271 4085 4086 1 
272 4568 4768 3 
273 5056 4808 3 
274 5056 5055 1 
275 4768 4767 1 
276 4567 5331 2 
277 4567 4568 1 
278 4808 4812 3 
279 4808 4807 1 
280 4564 4812 3 
281 4564 4563 1 
282 4564 5056 3 
283 4564 4808 3 
284 4812 5056 3 
285 4812 4811 1 
286 5775 5823 2 
287 5823 5824 1 
288 523 524 1 
289 17 18 1 
290 329 330 1 
291 329 561 2 
292 6028 6076 3 
293 6028 6096 3 
294 104 6096 3 
295 104 6028 3 
296 104 6082 3 
297 6096 6076 3 
298 59 6055 2 
299 6055 6056 1 
300 95 96 1 
301 95 6081 2 
302 6081 6082 1 
303 84 590 3 
304 84 83 1 
305 71 799 2 
306 83 307 2 
307 96 1324 3 
308 1324 1323 1 
309 856 1072 3 
310 856 855 1 
311 72 314 3 
312 72 71 1 
313 72 798 3 
314 798 314 3 
315 798 797 1 
316 70 798 3 
317 70 69 1 
318 70 72 3 
319 314 70 3 
320 314 313 1 
321 1798 1797 1 
322 1562 1798 3 
323 1561 1562 1 
324 2332 1334 3 
325 2332 2331 1 
326 1797 2021 2 
327 2852 2108 3 
328 2852 2851 1 
329 2108 1840 3 
330 2108 2107 1 
331 1840 2852 3 
332 1840 1839 1 
333 1799 2069 2 
334 3604 3044 3 
335 3604 3603 1 
336 2828 3604 3 
337 2828 2827 1 
338 3044 2828 3 
339 3044 3043 1 
340 4815 4816 1 
341 4816 4310 3 
342 4310 4309 1 
343 4309 4543 2 
344 4544 4798 3 
345 4544 4543 1 
346 3836 4544 3 
347 3836 3835 1 
348 4798 3836 3 
349 4798 4797 1 
350 5069 5070 1 
351 5316 6088 3 
352 5825 5826 1 
353 5825 6063 2 
354 6080 6079 1 
355 544 6080 3 
356 300 76 3 
357 300 299 1 
358 300 324 3 
359 562 300 3 
360 562 561 1 
361 6054 354 3 
362 6054 6053 1 
363 6027 6028 1 
364 6027 6079 2 
365 354 5806 3 
366 354 353 1 
367 324 76 3 
368 324 323 1 
369 324 562 3 
370 5806 6054 3 
371 5806 5805 1 
372 76 562 3 
373 76 75 1 
374 353 5541 2 
375 103 104 1 
376 103 335 2 
377 336 822 3 
378 336 335 1 
379 316 336 3 
380 316 315 1 
381 841 843 2 
382 2599 2600 1 
383 1311 2083 2 
384 2581 2582 1 
385 1576 2084 3 
386 1576 1575 1 
387 2084 2322 3 
388 2084 2083 1 
389 2312 2311 1 
390 2322 1576 3 
391 2322 2321 1 
392 2805 2806 1 
393 2568 2567 1 
394 2806 2568 3 
395 2338 2072 3 
396 2072 2071 1 
397 2035 2036 1 
398 2337 2338 1 
399 3298 3068 3 
400 3298 3297 1 
401 3298 3814 3 
402 3297 3619 2 
403 3814 3564 3 
404 3814 3813 1 
405 3829 3830 1 
406 3829 3847 2 
407 3801 4071 2 
408 3572 4072 3 
409 3572 3571 1 
410 3572 3816 3 
411 4853 4854 1 
412 4604 4603 1 
413 5346 4604 3 
414 5052 5051 1 
415 4339 4340 1 
416 5090 5052 3 
417 822 316 3 
418 822 821 1 
419 2077 2078 1 
420 847 848 1 
421 847 2077 2 
422 1341 1342 1 
423 1341 1831 2 
424 842 841 1 
425 1582 842 3 
426 1811 2623 2 
427 3081 3082 1 
428 3324 3848 3 
429 3848 3847 1 
430 3354 3353 1 
431 3864 3092 3 
432 3864 3863 1 
433 3606 3864 3 
434 3606 3605 1 
435 3092 3606 3 
436 3092 3091 1 
437 3802 5062 3 
438 3802 3801 1 
439 5062 4074 3 
440 5062 5061 1 
441 4074 3802 3 
442 4074 4073 1 
443 4355 4603 2 
444 3833 3834 1 
445 3833 4571 2 
446 4578 4356 3 
447 4578 4577 1 
448 4094 4356 3 
449 4094 4093 1 
450 4094 4578 3 
451 4356 4576 3 
452 4356 4355 1 
453 5345 5346 1 
454 5079 5345 2 
455 5080 5562 3 
456 5080 5079 1 
457 4876 5080 3 
458 4876 4875 1 
459 5562 4876 3 
460 5562 5561 1 
461 5102 5094 3 
462 5102 5101 1 
463 5348 5102 3 
464 5348 5347 1 
465 5094 5348 3 
466 5094 5093 1 
467 5573 5574 1 
468 5051 5573 2 
469 77 78 1 
470 77 823 2 
471 876 1350 3 
472 876 875 1 
473 586 832 3 
474 586 585 1 
475 858 876 3 
476 858 857 1 
477 6125 6126 1 
478 1086 1328 3 
479 1086 1085 1 
480 1090 1086 3 
481 1090 1089 1 
482 1091 1103 2 
483 812 1338 3 
484 812 811 1 
485 812 1634 3 
486 1851 1852 1 
487 1835 2115 2 
488 2115 2116 1 
489 2611 2612 1 
490 2611 3083 2 
491 3084 2826 3 
492 3084 3083 1 
493 2826 2862 3 
494 2826 2825 1 
495 2862 3084 3 
496 2862 2861 1 
497 2352 2351 1 
498 4337 4338 1 
499 3593 3863 2 
500 4609 4610 1 
501 4105 4106 1 
502 4105 4609 2 
503 3822 3850 3 
504 3822 3821 1 
505 4572 3822 3 
506 4572 4571 1 
507 3850 4572 3 
508 3850 3849 1 
509 4117 4118 1 
510 4117 4341 2 
511 4341 4342 1 
512 4569 4575 2 
513 4576 4094 3 
514 4576 4575 1 
515 4576 4578 3 
516 4346 4345 1 
517 4342 4822 3 
518 4342 4346 3 
519 4122 4346 3 
520 4122 4342 3 
521 4599 4600 1 
522 4599 4875 2 
523 5135 5136 1 
524 5135 5347 2 
525 4593 4594 1 
526 4593 5115 2 
527 4595 5093 2 
528 4825 4826 1 
529 5115 5116 1 
530 5866 6074 3 
531 5866 5865 1 
532 348 5866 3 
533 348 347 1 
534 6074 348 3 
535 6074 6073 1 
536 5597 5598 1 
537 628 1148 3 
538 1148 1147 1 
539 1350 858 3 
540 1350 1349 1 
541 2134 1620 3 
542 1620 1619 1 
543 1114 812 3 
544 1114 1113 1 
545 1114 1634 3 
546 1338 1114 3 
547 1338 1337 1 
548 595 1107 2 
549 1634 1338 3 
550 1634 1633 1 
551 1394 1393 1 
552 2136 2092 3 
553 2136 2135 1 
554 1590 2376 3 
555 1590 1589 1 
556 2131 2132 1 
557 2131 2135 2 
558 2363 2861 2 
559 2854 2853 1 
560 3594 3593 1 
561 3366 3594 3 
562 4350 3088 3 
563 4350 4349 1 
564 2842 4350 3 
565 2842 2841 1 
566 3088 2842 3 
567 3088 3087 1 
568 4821 4822 1 
569 4608 4590 3 
570 4608 4607 1 
571 4590 4842 3 
572 4590 4589 1 
573 4121 4122 1 
574 4121 4607 2 
575 3875 3876 1 
576 3875 4589 2 
577 4592 4890 3 
578 4592 4591 1 
579 4890 5354 3 
580 4890 4889 1 
581 5354 4592 3 
582 5354 5353 1 
583 4594 4622 3 
584 4600 4596 3 
585 4596 4595 1 
586 114 113 1 
587 6110 114 3 
588 5850 5344 3 
589 347 5863 2 
590 5883 5884 1 
591 653 1147 2 
592 6142 1372 3 
593 395 1117 2 
594 1372 1371 1 
595 1597 1619 2 
596 2128 2136 3 
597 2128 2127 1 
598 2092 2128 3 
599 2092 2091 1 
600 1618 2128 3 
601 1618 1617 1 
602 1618 2092 3 
603 1618 2136 3 
604 1605 1869 2 
605 1869 1870 1 
606 1131 1139 2 
607 2361 2362 1 
608 3134 2372 3 
609 3134 3133 1 
610 1132 3134 3 
611 1132 1131 1 
612 2372 1132 3 
613 2372 2371 1 
614 3099 3100 1 
615 3861 3862 1 
616 2336 3124 3 
617 2336 2335 1 
618 3884 2336 3 
619 3884 3883 1 
620 3124 3884 3 
621 3124 3123 1 
622 4362 4384 3 
623 362 5864 3 
624 5864 5863 1 
625 5344 5343 1 
626 6123 6124 1 
627 654 864 3 
628 654 653 1 
629 370 654 3 
630 370 369 1 
631 370 616 3 
632 370 864 3 
633 864 616 3 
634 864 863 1 
635 615 1431 2 
636 889 1371 2 
637 1133 1134 1 
638 1133 6121 2 
639 616 654 3 
640 616 615 1 
641 390 124 3 
642 390 389 1 
643 1136 1135 1 
644 1134 1136 3 
645 1661 1662 1 
646 414 1376 3 
647 1376 1375 1 
648 3374 2606 3 
649 3374 3373 1 
650 2606 2114 3 
651 2606 2605 1 
652 2114 3374 3 
653 2114 2113 1 
654 2396 2118 3 
655 2396 2395 1 
656 2118 1636 3 
657 2118 2117 1 
658 1636 2396 3 
659 1636 1635 1 
660 2402 2872 3 
661 2872 2871 1 
662 2887 2888 1 
663 3371 3372 1 
664 3135 3909 2 
665 3135 3136 1 
666 3136 2878 3 
667 2878 2877 1 
668 3613 4633 2 
669 3614 4116 3 
670 3614 3613 1 
671 4116 4422 3 
672 4116 4115 1 
673 4422 3614 3 
674 4422 4421 1 
675 5122 4120 3 
676 5122 5121 1 
677 4120 5356 3 
678 4120 4119 1 
679 4361 4362 1 
680 4852 4394 3 
681 4852 4851 1 
682 4398 4852 3 
683 4398 4397 1 
684 5356 5122 3 
685 5356 5355 1 
686 4384 4383 1 
687 5623 5895 2 
688 132 384 3 
689 132 131 1 
690 132 6122 3 
691 902 132 3 
692 902 901 1 
693 902 6122 3 
694 384 902 3 
695 384 383 1 
696 6122 384 3 
697 6122 6121 1 
698 1431 1432 1 
699 141 143 2 
700 1624 1898 3 
701 1650 1649 1 
702 1662 1650 3 
703 1898 1897 1 
704 622 1144 3 
705 1144 1143 1 
706 887 888 1 
707 887 1655 2 
708 1623 1624 1 
709 1907 2373 2 
710 1391 2605 2 
711 2662 2661 1 
712 2648 2662 3 
713 1895 2401 2 
714 2401 2402 1 
715 2871 2907 2 
716 3370 3369 1 
717 3162 3370 3 
718 4396 4634 3 
719 4634 4633 1 
720 4136 3916 3 
721 4136 4135 1 
722 3916 3678 3 
723 3916 3915 1 
724 3678 4136 3 
725 3678 3677 1 
726 5121 5143 2 
727 4394 4398 3 
728 4394 4393 1 
729 4374 4852 3 
730 4374 4373 1 
731 4374 4394 3 
732 4374 4398 3 
733 4653 4654 1 
734 4653 5147 2 
735 5147 5148 1 
736 4877 4931 2 
737 4393 5131 2 
738 4400 4888 3 
739 4400 4399 1 
740 5617 5618 1 
741 4399 5617 2 
742 416 144 3 
743 416 415 1 
744 416 642 3 
745 642 144 3 
746 642 641 1 
747 642 6148 3 
748 144 6148 3 
749 144 143 1 
750 6148 416 3 
751 6148 6147 1 
752 185 1161 2 
753 151 152 1 
754 151 641 2 
755 415 421 2 
756 1161 1162 1 
757 1157 1158 1 
758 2175 2176 1 
759 1908 1907 1 
760 2148 1908 3 
761 1896 1670 3 
762 1896 1895 1 
763 1670 1364 3 
764 1670 1669 1 
765 1364 1896 3 
766 1364 1363 1 
767 2908 2907 1 
768 2664 2908 3 
769 3631 3679 2 
770 2889 3681 2 
771 2889 2890 1 
772 4153 4154 1 
773 4412 4411 1 
774 3390 4412 3 
775 3377 3378 1 
776 5131 5132 1 
777 5144 5143 1 
778 5154 5144 3 
779 4661 4662 1 
780 4661 4929 2 
781 4195 5155 2 
782 4878 4400 3 
783 4878 4877 1 
784 4888 4878 3 
785 4888 4887 1 
786 5896 5378 3 
787 5896 5895 1 
788 5378 5898 3 
789 5378 5377 1 
790 5898 5896 3 
791 5898 5897 1 
792 5370 4390 3 
793 164 5922 3 
794 164 163 1 
795 164 690 3 
796 1163 1164 1 
797 163 6181 2 
798 656 422 3 
799 656 655 1 
800 656 934 3 
801 1152 656 3 
802 1152 1151 1 
803 934 422 3 
804 934 933 1 
805 934 1152 3 
806 422 1152 3 
807 422 421 1 
808 1681 1682 1 
809 1903 1904 1 
810 3401 3435 2 
811 3401 3402 1 
812 3176 3175 1 
813 2160 3176 3 
814 2663 2683 2 
815 2663 2664 1 
816 3402 2900 3 
817 2900 2899 1 
818 3649 3650 1 
819 2933 3649 2 
820 3682 2428 3 
821 3682 3681 1 
822 3632 3682 3 
823 3632 3631 1 
824 2428 3632 3 
825 2428 2427 1 
826 4458 4457 1 
827 4444 4458 3 
828 4430 4168 3 
829 4430 4429 1 
830 4430 4674 3 
831 5156 4962 3 
832 5156 5155 1 
833 4402 5156 3 
834 4402 4401 1 
835 4962 4402 3 
836 4962 4961 1 
837 4929 4930 1 
838 5185 5447 2 
839 5186 5174 3 
840 5186 5185 1 
841 5174 5446 3 
842 5174 5173 1 
843 4930 5174 3 
844 4906 5186 3 
845 4906 4930 3 
846 5446 5186 3 
847 5446 5445 1 
848 5165 5166 1 
849 4913 5165 2 
850 4390 4389 1 
851 5642 404 3 
852 5642 5641 1 
853 5926 5642 3 
854 5926 5925 1 
855 404 5926 3 
856 404 403 1 
857 5658 420 3 
858 5658 5657 1 
859 5928 5920 3 
860 5928 5927 1 
861 430 914 3 
862 430 429 1 
863 6182 5928 3 
864 6182 6181 1 
865 652 946 3 
866 652 651 1 
867 673 951 2 
868 5920 6182 3 
869 5920 5919 1 
870 448 652 3 
871 448 447 1 
872 946 448 3 
873 946 945 1 
874 6214 440 3 
875 440 439 1 
876 952 460 3 
877 952 951 1 
878 701 1173 2 
879 921 922 1 
880 671 921 2 
881 1174 1208 3 
882 1174 1173 1 
883 1174 1182 3 
884 954 1208 3 
885 954 953 1 
886 954 1174 3 
887 1182 954 3 
888 1182 1181 1 
889 1208 1182 3 
890 1208 1207 1 
891 941 942 1 
892 2466 1926 3 
893 1926 1925 1 
894 1894 1922 3 
895 1894 1893 1 
896 1700 1894 3 
897 1700 1699 1 
898 1922 1700 3 
899 1922 1921 1 
900 2185 2186 1 
901 2185 2193 2 
902 2899 3673 2 
903 2684 2683 1 
904 2902 2684 3 
905 4167 4457 2 
906 5160 4414 3 
907 5160 5159 1 
908 4914 3938 3 
909 4914 4913 1 
910 4914 5160 3 
911 3938 4414 3 
912 3938 3937 1 
913 3938 5160 3 
914 4414 4914 3 
915 4414 4413 1 
916 5415 5416 1 
917 5415 5673 2 
918 5673 5674 1 
919 5413 5659 2 
920 5660 5956 3 
921 5660 5659 1 
922 5444 5660 3 
923 5444 5443 1 
924 5956 5444 3 
925 5956 5955 1 
926 197 449 2 
927 439 665 2 
928 178 177 1 
929 222 178 3 
930 702 952 3 
931 702 701 1 
932 460 702 3 
933 460 459 1 
934 460 692 3 
935 692 702 3 
936 692 691 1 
937 692 952 3 
938 710 936 3 
939 710 709 1 
940 459 935 2 
941 682 672 3 
942 682 681 1 
943 682 710 3 
944 936 682 3 
945 936 935 1 
946 672 936 3 
947 672 671 1 
948 672 710 3 
949 687 1179 2 
950 1453 1665 2 
951 1665 1666 1 
952 1213 1719 2 
953 1663 1664 1 
954 1663 2721 2 
955 3201 3202 1 
956 3391 3392 1 
957 2959 2960 1 
958 2959 3201 2 
959 3674 3673 1 
960 3172 3674 3 
961 2929 2930 1 
962 2923 2947 2 
963 3712 3928 3 
964 3712 3711 1 
965 3458 3712 3 
966 3458 3457 1 
967 3928 3458 3 
968 3928 3927 1 
969 4201 4202 1 
970 4686 4716 3 
971 3457 3683 2 
972 3974 3738 3 
973 4716 4715 1 
974 4426 3662 3 
975 4426 4425 1 
976 3973 3974 1 
977 3973 4687 2 
978 3694 4956 3 
979 3694 3693 1 
980 3694 3934 3 
981 3694 3932 3 
982 3948 3947 1 
983 4216 4684 3 
984 4216 4215 1 
985 4216 4424 3 
986 4968 3948 3 
987 4441 4442 1 
988 3947 4709 2 
989 4424 4684 3 
990 4424 4423 1 
991 4967 4968 1 
992 4684 4162 3 
993 4684 4683 1 
994 3429 3693 2 
995 3429 3430 1 
996 5224 5223 1 
997 4934 4933 1 
998 5458 5224 3 
999 5201 5202 1 
1000 5189 5201 2 
1001 5189 5190 1 
1002 5191 5192 1 
1003 5457 5458 1 
1004 4697 5457 2 
1005 5936 5935 1 
1006 5674 5936 3 
1007 5210 6222 3 
1008 423 5933 2 
1009 196 194 3 
1010 190 170 3 
1011 194 193 1 
1012 170 169 1 
1013 6218 424 3 
1014 424 423 1 
1015 706 180 3 
1016 706 705 1 
1017 180 5968 3 
1018 180 179 1 
1019 5968 706 3 
1020 5968 5967 1 
1021 5960 450 3 
1022 5960 5959 1 
1023 221 222 1 
1024 462 198 3 
1025 715 716 1 
1026 715 5959 2 
1027 6196 406 3 
1028 6195 6196 1 
1029 215 6205 2 
1030 215 216 1 
1031 1942 1964 3 
1032 1942 1941 1 
1033 1964 1720 3 
1034 1964 1963 1 
1035 1720 1719 1 
1036 2195 2196 1 
1037 2195 2207 2 
1038 3202 2924 3 
1039 2924 2923 1 
1040 2948 3958 3 
1041 2948 2947 1 
1042 2948 3450 3 
1043 2948 3946 3 
1044 3958 3946 3 
1045 3958 3957 1 
1046 3946 3450 3 
1047 3946 3945 1 
1048 3450 3958 3 
1049 3450 3449 1 
1050 3661 3927 2 
1051 3683 3684 1 
1052 3421 3422 1 
1053 3421 3711 2 
1054 3449 3941 2 
1055 4668 4426 3 
1056 4668 4667 1 
1057 3962 3662 3 
1058 3962 3961 1 
1059 3962 4668 3 
1060 3962 4426 3 
1061 3738 3737 1 
1062 3702 3701 1 
1063 3422 3702 3 
1064 4685 4686 1 
1065 3975 3976 1 
1066 4164 4450 3 
1067 4694 4212 3 
1068 4694 4693 1 
1069 3686 4694 3 
1070 3686 3685 1 
1071 4212 3686 3 
1072 4212 4211 1 
1073 3934 4956 3 
1074 3934 3933 1 
1075 4215 4437 2 
1076 4683 4945 2 
1077 4161 5199 2 
1078 4946 4945 1 
1079 5190 4946 3 
1080 5678 5677 1 
1081 5718 5678 3 
1082 5723 5724 1 
1083 5723 6221 2 
1084 6174 5206 3 
1085 6174 6173 1 
1086 5206 5964 3 
1087 5206 5205 1 
1088 5206 5938 3 
1089 5964 6174 3 
1090 5964 5963 1 
1091 5938 5964 3 
1092 5938 5937 1 
1093 5938 6174 3 
1094 5932 5966 3 
1095 5932 5931 1 
1096 5932 5934 3 
1097 5966 204 3 
1098 5966 5965 1 
1099 5934 5966 3 
1100 5934 5933 1 
1101 204 5932 3 
1102 204 203 1 
1103 204 5934 3 
1104 5463 5937 2 
1105 5967 6173 2 
1106 6164 5486 3 
1107 5486 5485 1 
1108 5485 5721 2 
1109 461 462 1 
1110 6163 6164 1 
1111 1185 1186 1 
1112 1710 720 3 
1113 1710 1709 1 
1114 968 1710 3 
1115 968 967 1 
1116 1460 2216 3 
1117 1460 1459 1 
1118 1982 1460 3 
1119 1982 1981 1 
1120 2216 1982 3 
1121 2216 2215 1 
1122 3701 3975 2 
1123 3459 3957 2 
1124 4450 4449 1 
1125 3460 3459 1 
1126 3944 3714 3 
1127 3976 3460 3 
1128 3714 3713 1 
1129 4438 4206 3 
1130 4438 4437 1 
1131 4438 4474 3 
1132 4988 4438 3 
1133 4988 4987 1 
1134 4206 4988 3 
1135 4206 4205 1 
1136 4474 4206 3 
1137 4474 4473 1 
1138 4474 4988 3 
1139 5713 6005 2 
1140 5714 5713 1 
1141 5724 5714 3 
1142 232 466 3 
1143 232 231 1 
1144 5464 232 3 
1145 5464 5463 1 
1146 466 5464 3 
1147 466 465 1 
1148 1725 1726 1 
1149 455 1469 2 
1150 1475 1476 1 
1151 1476 1488 3 
1152 1459 1709 2 
1153 1481 2239 2 
1154 2461 2462 1 
1155 2211 2461 2 
1156 2734 2720 3 
1157 3233 3234 1 
1158 2231 2232 1 
1159 2231 3233 2 
1160 3462 3482 3 
1161 3482 3481 1 
1162 3951 4463 2 
1163 4479 4713 2 
1164 4969 4987 2 
1165 4259 4721 2 
1166 4714 4982 3 
1167 4714 4713 1 
1168 5510 5509 1 
1169 231 5973 2 
1170 5974 226 3 
1171 5974 5973 1 
1172 5456 4998 3 
1173 5456 5455 1 
1174 6000 5456 3 
1175 6000 5999 1 
1176 4998 6000 3 
1177 4998 4997 1 
1178 750 734 3 
1179 750 749 1 
1180 217 1951 2 
1181 1951 1952 1 
1182 469 737 2 
1183 1247 1475 2 
1184 1222 1221 1 
1185 1223 1257 2 
1186 1211 1212 1 
1187 1211 1221 2 
1188 1224 1730 3 
1189 1224 1223 1 
1190 736 1224 3 
1191 736 735 1 
1192 1730 736 3 
1193 1730 1729 1 
1194 2229 2230 1 
1195 1729 2229 2 
1196 1993 1994 1 
1197 1993 2729 2 
1198 1497 1498 1 
1199 1491 1735 2 
1200 2240 2239 1 
1201 1498 1994 3 
1202 1498 2240 3 
1203 1718 2240 3 
1204 2972 2242 3 
1205 2972 2971 1 
1206 2733 2985 2 
1207 2733 2734 1 
1208 3464 3463 1 
1209 2976 3464 3 
1210 2248 2490 3 
1211 3465 3749 2 
1212 3749 3750 1 
1213 3466 3762 3 
1214 3466 3465 1 
1215 4464 3466 3 
1216 4464 4463 1 
1217 3762 4464 3 
1218 3762 3761 1 
1219 4983 4984 1 
1220 4983 4253 2 
1221 4254 4253 1 
1222 4984 4254 3 
1223 4711 4712 1 
1224 4480 4260 3 
1225 4480 4479 1 
1226 4970 4480 3 
1227 4970 4969 1 
1228 4260 4970 3 
1229 4260 4259 1 
1230 4990 5222 3 
1231 4990 4989 1 
1232 5222 4722 3 
1233 5222 5221 1 
1234 4722 4990 3 
1235 4722 4721 1 
1236 5489 5789 2 
1237 5233 5509 2 
1238 5995 5996 1 
1239 13 229 2 
1240 2 4998 3 
1241 2 1 1 
1242 2 6000 3 
1243 2 5456 3 
1244 254 508 3 
1245 254 253 1 
1246 6025 6026 1 
1247 508 5982 3 
1248 508 507 1 
1249 5982 254 3 
1250 5982 5981 1 
1251 266 265 1 
1252 5732 266 3 
1253 245 246 1 
1254 245 1005 2 
1255 1004 750 3 
1256 1004 1003 1 
1257 734 1004 3 
1258 734 733 1 
1259 475 476 1 
1260 243 475 2 
1261 5 733 2 
1262 6 5 1 
1263 1994 2240 3 
1264 1537 1538 1 
1265 2496 2536 3 
1266 2251 2489 2 
1267 2745 2746 1 
1268 1995 2745 2 
1269 2490 2489 1 
1270 2247 2248 1 
1271 4015 4016 1 
1272 4223 4224 1 
1273 4762 5242 3 
1274 4762 4761 1 
1275 4757 4758 1 
1276 5731 5732 1 
1277 5981 6007 2 
1278 29 251 2 
1279 5784 6038 3 
1280 753 754 1 
1281 1024 1023 1 
1282 234 233 1 
1283 259 753 2 
1284 754 756 3 
1285 756 755 1 
1286 1012 782 3 
1287 1012 1011 1 
1288 1012 1030 3 
1289 1012 1276 3 
1290 506 234 3 
1291 1030 782 3 
1292 1030 1029 1 
1293 782 1276 3 
1294 782 781 1 
1295 233 269 2 
1296 269 270 1 
1297 310 309 1 
1298 1276 1030 3 
1299 1276 1275 1 
1300 486 485 1 
1301 1242 486 3 
1302 764 310 3 
1303 1244 778 3 
1304 1244 1243 1 
1305 778 1042 3 
1306 778 777 1 
1307 1042 1244 3 
1308 1042 1041 1 
1309 1011 1483 2 
1310 1483 1484 1 
1311 297 298 1 
1312 297 1749 2 
1313 1280 1786 3 
1314 1280 1279 1 
1315 1508 1280 3 
1316 1508 1507 1 
1317 1508 1786 3 
1318 1758 1020 3 
1319 1758 1757 1 
1320 1020 536 3 
1321 1020 1019 1 
1322 1786 1008 3 
1323 1786 1785 1 
1324 1008 1280 3 
1325 1008 1007 1 
1326 1008 1508 3 
1327 1747 1757 2 
1328 1724 1748 3 
1329 1724 1723 1 
1330 1724 2012 3 
1331 2012 1748 3 
1332 2012 2011 1 
1333 2049 2050 1 
1334 2294 2266 3 
1335 2294 2293 1 
1336 2770 2294 3 
1337 2770 2769 1 
1338 2266 2770 3 
1339 2266 2265 1 
1340 2011 2741 2 
1341 1748 1766 3 
1342 1748 1747 1 
1343 1723 2253 2 
1344 2741 2742 1 
1345 2253 2254 1 
1346 2785 2786 1 
1347 2525 2785 2 
1348 2525 2526 1 
1349 2495 2496 1 
1350 2276 2018 3 
1351 2276 2275 1 
1352 2754 2276 3 
1353 2754 2753 1 
1354 2018 2508 3 
1355 2018 2017 1 
1356 2018 2754 3 
1357 2508 2276 3 
1358 2508 2507 1 
1359 2508 2754 3 
1360 3223 3224 1 
1361 1996 1995 1 
1362 2746 1996 3 
1363 2992 2778 3 
1364 2992 2991 1 
1365 2992 3002 3 
1366 2778 3006 3 
1367 2778 2777 1 
1368 3002 2778 3 
1369 3002 3001 1 
1370 3002 3006 3 
1371 3006 2992 3 
1372 3006 3005 1 
1373 2514 3484 3 
1374 2514 2513 1 
1375 3484 2998 3 
1376 3484 3483 1 
1377 3010 3986 3 
1378 3010 3009 1 
1379 3262 3788 3 
1380 3262 3261 1 
1381 2518 3262 3 
1382 2518 2517 1 
1383 2518 3788 3 
1384 2262 3262 3 
1385 2262 2261 1 
1386 2262 2518 3 
1387 3986 3510 3 
1388 3986 3985 1 
1389 3510 3010 3 
1390 3510 3509 1 
1391 3788 2262 3 
1392 3788 3787 1 
1393 4258 3522 3 
1394 3030 3756 3 
1395 3030 3029 1 
1396 3003 3027 2 
1397 3760 3238 3 
1398 3760 3759 1 
1399 3504 4022 3 
1400 3756 3004 3 
1401 3756 3755 1 
1402 3004 3030 3 
1403 3004 3003 1 
1404 3503 3504 1 
1405 3769 4503 2 
1406 3491 3492 1 
1407 3992 3502 3 
1408 3502 3501 1 
1409 3505 3765 2 
1410 4285 4286 1 
1411 4017 4285 2 
1412 4748 4462 3 
1413 4794 4728 3 
1414 4794 4793 1 
1415 4245 4529 2 
1416 4785 4786 1 
1417 4529 4530 1 
1418 4007 4008 1 
1419 4007 4785 2 
1420 4235 4236 1 
1421 4235 4461 2 
1422 4728 4268 3 
1423 4728 4727 1 
1424 4498 4728 3 
1425 4498 4497 1 
1426 4498 4794 3 
1427 4268 4498 3 
1428 4268 4267 1 
1429 4268 4794 3 
1430 4758 4724 3 
1431 4509 4727 2 
1432 5259 5260 1 
1433 5259 5737 2 
1434 5481 5482 1 
1435 5249 5250 1 
1436 5249 5481 2 
1437 4515 4741 2 
1438 5526 5738 3 
1439 5526 5525 1 
1440 5526 5744 3 
1441 5744 5738 3 
1442 5744 5743 1 
1443 5738 4494 3 
1444 5738 5737 1 
1445 5520 5519 1 
1446 5496 5520 3 
1447 4494 5744 3 
1448 4494 4493 1 
1449 4494 5526 3 
1450 4510 5530 3 
1451 4510 4509 1 
1452 4776 4510 3 
1453 4776 4775 1 
1454 5014 5502 3 
1455 5508 4994 3 
1456 4994 4993 1 
1457 5502 5501 1 
1458 4729 4993 2 
1459 4755 5501 2 
1460 5764 4782 3 
1461 5764 5763 1 
1462 4782 5006 3 
1463 4782 4781 1 
1464 5006 5764 3 
1465 5006 5005 1 
1466 5499 5500 1 
1467 5499 5505 2 
1468 5752 5751 1 
1469 5512 6020 3 
1470 5512 5511 1 
1471 6020 5770 3 
1472 6020 6019 1 
1473 5741 5751 2 
1474 5770 5512 3 
1475 5770 5769 1 
1476 5255 5747 2 
1477 500 16 3 
1478 500 499 1 
1479 27 28 1 
1480 27 6033 2 
1481 6038 6037 1 
1482 5734 5472 3 
1483 5734 5733 1 
1484 5734 6232 3 
1485 5748 5734 3 
1486 5748 5747 1 
1487 5748 6232 3 
1488 6232 5472 3 
1489 6232 6231 1 
1490 5472 5748 3 
1491 5472 5471 1 
1492 15 499 2 
1493 249 5517 2 
1494 239 240 1 
1495 6010 6009 1 
1496 6010 5766 3 
1497 6241 6242 1 
1498 23 24 1 
1499 252 5772 3 
1500 252 251 1 
1501 512 511 1 
1502 512 274 3 
1503 512 5766 3 
1504 274 273 1 
1505 274 6010 3 
1506 21 22 1 
1507 21 511 2 
1508 6242 6010 3 
1509 5772 6012 3 
1510 5772 5771 1 
1511 34 248 3 
1512 34 33 1 
1513 34 6022 3 
1514 268 1024 3 
1515 257 6241 2 
1516 257 258 1 
1517 516 284 3 
1518 25 26 1 
1519 787 788 1 
1520 787 1029 2 
1521 763 764 1 
1522 271 763 2 
1523 788 514 3 
1524 514 513 1 
1525 502 1022 3 
1526 284 283 1 
1527 747 748 1 
1528 781 1523 2 
1529 3 747 2 
1530 286 272 3 
1531 286 285 1 
1532 1021 1022 1 
1533 535 1021 2 
1534 1509 1510 1 
1535 1279 2019 2 
1536 1002 1020 3 
1537 1002 1001 1 
1538 1002 1758 3 
1539 536 1002 3 
1540 536 535 1 
1541 536 1758 3 
1542 2020 1780 3 
1543 2020 2019 1 
1544 1034 2020 3 
1545 1034 1033 1 
1546 1780 1034 3 
1547 1780 1779 1 
1548 1746 1034 3 
1549 1746 1745 1 
1550 1746 1780 3 
1551 1746 2020 3 
1552 1056 1266 3 
1553 1056 1055 1 
1554 2014 1056 3 
1555 2014 2013 1 
1556 2773 2774 1 
1557 1266 2014 3 
1558 1266 1265 1 
1559 1766 1724 3 
1560 1766 1765 1 
1561 1766 2012 3 
1562 2274 2266 3 
1563 2274 2273 1 
1564 2274 2294 3 
1565 2274 2770 3 
1566 2002 2486 3 
1567 2486 2485 1 
1568 2486 2774 3 
1569 1265 2273 2 
1570 1519 2275 2 
1571 2504 2740 3 
1572 2504 2982 3 
1573 2740 2739 1 
1574 2740 2982 3 
1575 2982 2981 1 
1576 2526 2764 3 
1577 2764 2763 1 
1578 3020 2798 3 
1579 3020 3019 1 
1580 3020 3546 3 
1581 3020 3026 3 
1582 3546 3026 3 
1583 3546 3545 1 
1584 2798 3546 3 
1585 2798 2797 1 
1586 2017 2513 2 
1587 3026 2798 3 
1588 3026 3025 1 
1589 3261 3545 2 
1590 3495 3496 1 
1591 3271 3495 2 
1592 3522 3521 1 
1593 2768 2792 3 
1594 2768 2767 1 
1595 2792 3268 3 
1596 2792 2791 1 
1597 3268 2768 3 
1598 3268 3267 1 
1599 2261 2771 2 
1600 3264 3538 3 
1601 3264 3263 1 
1602 3264 3272 3 
1603 3034 3264 3 
1604 3034 3033 1 
1605 3550 3549 1 
1606 3304 3550 3 
1607 3287 3521 2 
1608 3538 3034 3 
1609 3538 3537 1 
1610 3272 3034 3 
1611 3272 3271 1 
1612 3272 3538 3 
1613 3290 2784 3 
1614 3303 3304 1 
1615 3029 4023 2 
1616 3543 3811 2 
1617 3809 3810 1 
1618 3273 3809 2 
1619 3540 4524 3 
1620 3013 4513 2 
1621 3778 3777 1 
1622 4028 3544 3 
1623 4028 4027 1 
1624 3014 3544 3 
1625 3014 3013 1 
1626 3014 4028 3 
1627 3014 4046 3 
1628 4046 4028 3 
1629 4046 4045 1 
1630 3544 4046 3 
1631 3544 3543 1 
1632 3764 3778 3 
1633 3527 3528 1 
1634 3527 3777 2 
1635 4271 4743 2 
1636 4523 5035 2 
1637 4056 4055 1 
1638 4047 4499 2 
1639 4246 4526 3 
1640 4246 4245 1 
1641 4246 4274 3 
1642 4788 4246 3 
1643 4788 4787 1 
1644 4274 4788 3 
1645 4274 4273 1 
1646 4274 4526 3 
1647 4526 4788 3 
1648 4526 4525 1 
1649 3771 3772 1 
1650 3771 4723 2 
1651 4261 4267 2 
1652 4273 5297 2 
1653 4775 5011 2 
1654 5011 5012 1 
1655 4031 4032 1 
1656 5507 5508 1 
1657 4262 4516 3 
1658 4262 4261 1 
1659 4780 4262 3 
1660 4780 4779 1 
1661 4516 4780 3 
1662 4516 4515 1 
1663 5013 5014 1 
1664 4773 5013 2 
1665 5001 5263 2 
1666 4781 5529 2 
1667 5015 5519 2 
1668 5533 5534 1 
1669 16 6034 3 
1670 16 15 1 
1671 6034 500 3 
1672 6034 6033 1 
1673 5762 5004 3 
1674 5762 5761 1 
1675 5004 4766 3 
1676 5004 5003 1 
1677 4766 5762 3 
1678 4766 4765 1 
1679 5774 6024 3 
1680 5774 5773 1 
1681 6012 252 3 
1682 6012 6011 1 
1683 22 512 3 
1684 22 274 3 
1685 22 6242 3 
1686 6032 5774 3 
1687 6032 6031 1 
1688 247 5753 2 
1689 5800 5774 3 
1690 5800 5799 1 
1691 5800 6032 3 
1692 6024 5800 3 
1693 6024 6023 1 
1694 6024 6032 3 
1695 6023 6037 2 
1696 5515 5516 1 
1697 248 12 3 
1698 248 247 1 
1699 12 34 3 
1700 12 11 1 
1701 12 6022 3 
1702 6022 248 3 
1703 6022 6021 1 
1704 1015 1016 1 
1705 11 6051 2 
1706 258 38 3 
1707 501 502 1 
1708 33 501 2 
1709 38 37 1 
1710 255 256 1 
1711 521 1067 2 
1712 1067 1068 1 
1713 37 6039 2 
1714 6039 6040 1 
1715 281 282 1 
1716 281 785 2 
1717 1035 1329 2 
1718 1032 1038 3 
1719 1032 1031 1 
1720 1031 1039 2 
1721 1536 1268 3 
1722 1536 1535 1 
1723 1268 1760 3 
1724 1268 1267 1 
1725 1760 1536 3 
1726 1760 1759 1 
1727 1743 1744 1 
1728 1546 1556 3 
1729 1546 1545 1 
1730 1558 1546 3 
1731 1558 1557 1 
1732 1278 1268 3 
1733 1278 1277 1 
1734 1278 1760 3 
1735 1278 1536 3 
1736 806 1556 3 
1737 806 805 1 
1738 806 1558 3 
1739 806 1546 3 
1740 1556 1558 3 
1741 1556 1555 1 
1742 1511 1512 1 
1743 1511 1743 2 
1744 2062 1284 3 
1745 2062 2061 1 
1746 1802 2062 3 
1747 1802 1801 1 
1748 1528 2062 3 
1749 1528 1527 1 
1750 1528 1802 3 
1751 1284 1528 3 
1752 1284 1283 1 
1753 1284 1802 3 
1754 1773 2297 2 