ITEM: TIMESTEP
90200
ITEM: NUMBER OF ENTRIES
8148
ITEM: BOX BOUNDS pp pp ff
0.0000000000000000e+00 7.2168784000000002e+01
0.0000000000000000e+00 7.2168784000000002e+01
0.0000000000000000e+00 1.2000000000000000e+01
ITEM: ENTRIES index c_1[1] c_1[2] c_1[3]
1 266 265 1 
2 6022 248 3 
3 6022 6021 1 
4 12 34 3 
5 12 11 1 
6 12 6022 3 
7 24 474 3 
8 24 23 1 
9 24 6018 3 
10 24 6014 3 
11 6014 6018 3 
12 6014 6013 1 
13 34 248 3 
14 34 33 1 
15 34 6022 3 
16 6018 474 3 
17 6018 6017 1 
18 474 6014 3 
19 474 473 1 
20 244 243 1 
21 6002 244 3 
22 5518 490 3 
23 5518 5517 1 
24 490 5754 3 
25 490 489 1 
26 5754 5518 3 
27 5754 5753 1 
28 248 12 3 
29 248 247 1 
30 6052 748 3 
31 748 747 1 
32 1747 1757 2 
33 2223 3447 2 
34 2777 3787 2 
35 3262 3788 3 
36 3262 3261 1 
37 2992 2778 3 
38 2992 2991 1 
39 2992 3002 3 
40 2262 3262 3 
41 2262 2261 1 
42 2262 2518 3 
43 2518 3262 3 
44 2518 2517 1 
45 2518 3788 3 
46 3002 2778 3 
47 3002 3001 1 
48 3002 3006 3 
49 3006 2992 3 
50 3006 3005 1 
51 2778 3006 3 
52 2778 2777 1 
53 3788 2262 3 
54 3788 3787 1 
55 2991 3277 2 
56 3277 3278 1 
57 4018 3506 3 
58 4018 4017 1 
59 4018 4726 3 
60 4726 3506 3 
61 4726 4725 1 
62 4504 4018 3 
63 4504 4503 1 
64 4504 4726 3 
65 3506 4504 3 
66 3506 3505 1 
67 3505 3765 2 
68 3543 3811 2 
69 6246 4488 3 
70 6246 6245 1 
71 4488 5238 3 
72 4488 4487 1 
73 5238 6246 3 
74 5238 5237 1 
75 6001 6002 1 
76 6001 6009 2 
77 6011 6021 2 
78 5765 6013 2 
79 252 6012 3 
80 252 251 1 
81 252 5768 3 
82 6012 5772 3 
83 6012 6011 1 
84 21 22 1 
85 21 511 2 
86 1758 1020 3 
87 1758 1757 1 
88 1020 536 3 
89 1020 1019 1 
90 536 1002 3 
91 536 535 1 
92 536 1758 3 
93 1002 1020 3 
94 1002 1001 1 
95 1002 1758 3 
96 2002 2486 3 
97 2002 2774 3 
98 2486 2485 1 
99 2486 2774 3 
100 2298 2526 3 
101 2298 2297 1 
102 2298 2774 3 
103 2526 2764 3 
104 2526 2525 1 
105 2764 2298 3 
106 2764 2763 1 
107 2510 2509 1 
108 2271 2763 2 
109 1519 2275 2 
110 2759 3251 2 
111 2261 2771 2 
112 2302 2512 3 
113 2732 1504 3 
114 2732 2731 1 
115 2732 2762 3 
116 2252 2732 3 
117 2252 2251 1 
118 2252 2762 3 
119 2772 2530 3 
120 2772 2771 1 
121 2522 2532 3 
122 2522 2772 3 
123 2512 2530 3 
124 2512 2522 3 
125 2301 2302 1 
126 2301 2797 2 
127 3770 3769 1 
128 4012 3770 3 
129 3014 3544 3 
130 3014 3013 1 
131 3014 4028 3 
132 3014 4046 3 
133 3544 4046 3 
134 3544 3543 1 
135 4046 4028 3 
136 4046 4045 1 
137 3769 4503 2 
138 3992 3502 3 
139 3502 3501 1 
140 4028 3544 3 
141 4028 4027 1 
142 4735 4736 1 
143 4493 4735 2 
144 5732 266 3 
145 29 251 2 
146 518 786 3 
147 518 517 1 
148 518 790 3 
149 296 518 3 
150 296 295 1 
151 292 291 1 
152 5804 292 3 
153 786 296 3 
154 786 785 1 
155 786 790 3 
156 790 296 3 
157 790 789 1 
158 545 553 2 
159 1267 1549 2 
160 1772 1774 3 
161 1772 1771 1 
162 1282 1772 3 
163 1282 1281 1 
164 1282 1522 3 
165 1774 1282 3 
166 1774 1773 1 
167 1522 1774 3 
168 1522 1521 1 
169 1522 1772 3 
170 1281 1541 2 
171 1773 2297 2 
172 2314 1520 3 
173 2314 2313 1 
174 2314 2818 3 
175 2532 2772 3 
176 2532 2531 1 
177 2818 2296 3 
178 2818 2817 1 
179 1520 2296 3 
180 1520 1519 1 
181 1520 2818 3 
182 2296 2314 3 
183 2296 2295 1 
184 2272 2271 1 
185 2546 2272 3 
186 3780 3779 1 
187 2527 2528 1 
188 2530 2532 3 
189 2530 2529 1 
190 2528 3780 3 
191 4011 4012 1 
192 4036 4035 1 
193 3991 3992 1 
194 3804 4052 3 
195 3281 3991 2 
196 4052 4051 1 
197 4052 3312 3 
198 3312 3311 1 
199 3312 3804 3 
200 4534 5036 3 
201 4534 4533 1 
202 4287 4288 1 
203 4005 4287 2 
204 4282 4264 3 
205 4282 4281 1 
206 4282 4534 3 
207 5036 4282 3 
208 5036 5035 1 
209 4264 5036 3 
210 4264 4263 1 
211 4264 4534 3 
212 4315 4316 1 
213 4301 4315 2 
214 4500 4276 3 
215 4500 4499 1 
216 4276 4048 3 
217 4276 4275 1 
218 4048 4500 3 
219 4048 4047 1 
220 5760 4804 3 
221 5760 5759 1 
222 4765 5537 2 
223 5003 5515 2 
224 1330 1329 1 
225 20 1330 3 
226 38 37 1 
227 258 38 3 
228 291 795 2 
229 1760 1536 3 
230 1760 1759 1 
231 1278 1268 3 
232 1278 1277 1 
233 1278 1760 3 
234 1278 1536 3 
235 1268 1760 3 
236 1268 1267 1 
237 1536 1268 3 
238 1536 1535 1 
239 1542 1792 3 
240 1542 1541 1 
241 1542 2308 3 
242 2308 1290 3 
243 2308 2307 1 
244 1792 2308 3 
245 1792 1791 1 
246 794 290 3 
247 794 793 1 
248 1290 1792 3 
249 1290 1289 1 
250 1290 1542 3 
251 2284 1778 3 
252 2284 2283 1 
253 1778 1292 3 
254 1778 1777 1 
255 1292 2284 3 
256 1292 1291 1 
257 2313 2775 2 
258 3031 3309 2 
259 5284 5296 3 
260 5284 5283 1 
261 5284 5760 3 
262 5296 4804 3 
263 5296 5295 1 
264 5296 5760 3 
265 4804 5284 3 
266 4804 4803 1 
267 5262 5538 3 
268 5262 5261 1 
269 5538 6048 3 
270 5538 5537 1 
271 6048 5262 3 
272 6048 6047 1 
273 5544 5318 3 
274 75 6093 2 
275 6044 322 3 
276 6044 6043 1 
277 537 5779 2 
278 313 559 2 
279 70 798 3 
280 70 69 1 
281 70 72 3 
282 798 314 3 
283 798 797 1 
284 314 70 3 
285 314 313 1 
286 72 314 3 
287 72 71 1 
288 72 798 3 
289 1539 1791 2 
290 1333 2307 2 
291 1289 2283 2 
292 2552 3784 3 
293 3784 3783 1 
294 3291 3299 2 
295 3292 3310 3 
296 3292 3291 1 
297 3792 3292 3 
298 3792 3791 1 
299 3310 3792 3 
300 3310 3309 1 
301 3607 3608 1 
302 3607 3813 2 
303 3067 3321 2 
304 3331 3567 2 
305 5044 5302 3 
306 5044 5043 1 
307 5814 5044 3 
308 5814 5813 1 
309 5814 5830 3 
310 5302 5814 3 
311 5302 5301 1 
312 5302 5830 3 
313 5830 5044 3 
314 5830 5829 1 
315 353 5541 2 
316 5043 5317 2 
317 5821 5822 1 
318 5805 6043 2 
319 322 538 3 
320 322 321 1 
321 322 784 3 
322 2316 1096 3 
323 1314 1313 1 
324 1540 1572 3 
325 1540 1539 1 
326 1302 1540 3 
327 1302 1301 1 
328 1064 1572 3 
329 1064 1063 1 
330 1064 1540 3 
331 1064 1302 3 
332 1572 1302 3 
333 1572 1571 1 
334 2304 1314 3 
335 1063 1817 2 
336 2353 2354 1 
337 2084 2322 3 
338 2084 2083 1 
339 2322 1576 3 
340 2322 2321 1 
341 1576 2084 3 
342 1576 1575 1 
343 3086 2844 3 
344 3086 3085 1 
345 3074 3086 3 
346 3074 3073 1 
347 2844 2562 3 
348 2844 2843 1 
349 2844 3074 3 
350 2809 2810 1 
351 3065 3325 2 
352 3584 3583 1 
353 3064 2788 3 
354 3064 3063 1 
355 4076 3064 3 
356 4076 4075 1 
357 3776 3332 3 
358 3776 3775 1 
359 3776 4086 3 
360 4291 4587 2 
361 3575 3815 2 
362 3568 4058 3 
363 3568 3567 1 
364 3568 4300 3 
365 4292 3568 3 
366 4292 4291 1 
367 4292 4300 3 
368 4058 4292 3 
369 4058 4057 1 
370 4300 4058 3 
371 4300 4299 1 
372 6088 6087 1 
373 5316 6088 3 
374 5301 6087 2 
375 5816 74 3 
376 5816 5815 1 
377 5825 6063 2 
378 5820 5552 3 
379 5820 5819 1 
380 5542 5820 3 
381 5542 5541 1 
382 5559 6053 2 
383 5552 5542 3 
384 5552 5551 1 
385 5794 5568 3 
386 5794 5793 1 
387 5794 5808 3 
388 5560 5808 3 
389 5560 5559 1 
390 5560 5794 3 
391 5568 5560 3 
392 5568 5567 1 
393 355 356 1 
394 81 82 1 
395 81 563 2 
396 337 355 2 
397 596 1092 3 
398 596 595 1 
399 1814 596 3 
400 1814 1813 1 
401 571 1559 2 
402 1560 1078 3 
403 1560 1559 1 
404 844 1560 3 
405 844 843 1 
406 1078 844 3 
407 1078 1077 1 
408 2291 2353 2 
409 2058 2306 3 
410 2058 2057 1 
411 2058 3352 3 
412 2581 2582 1 
413 2582 2824 3 
414 2306 1790 3 
415 2306 2305 1 
416 2306 3352 3 
417 2057 2309 2 
418 2354 2582 3 
419 2354 3038 3 
420 2321 2857 2 
421 2823 2824 1 
422 2312 2311 1 
423 1846 2580 3 
424 2046 2312 3 
425 2046 2582 3 
426 2072 2071 1 
427 2338 2072 3 
428 2810 2036 3 
429 3847 3829 2 
430 3343 3353 2 
431 3583 3599 2 
432 3324 3848 3 
433 3324 3323 1 
434 3830 3324 3 
435 3830 3829 1 
436 3848 3830 3 
437 3848 3847 1 
438 3323 3775 2 
439 4321 4351 2 
440 4343 4344 1 
441 3835 4057 2 
442 4309 4543 2 
443 4335 4541 2 
444 5606 4840 3 
445 5606 5605 1 
446 5340 5840 3 
447 5340 5339 1 
448 6072 5340 3 
449 6072 6071 1 
450 5840 6072 3 
451 5840 5839 1 
452 5084 5340 3 
453 5084 5083 1 
454 5084 6072 3 
455 5084 5840 3 
456 5808 5568 3 
457 5808 5807 1 
458 5807 5839 2 
459 61 6071 2 
460 858 876 3 
461 858 857 1 
462 6081 6082 1 
463 97 331 2 
464 95 96 1 
465 95 6081 2 
466 1148 1147 1 
467 82 564 3 
468 82 840 3 
469 564 563 1 
470 564 840 3 
471 840 839 1 
472 375 376 1 
473 375 579 2 
474 1101 1637 2 
475 1102 596 3 
476 1102 1101 1 
477 1102 1814 3 
478 1069 1327 2 
479 1092 1814 3 
480 1092 1091 1 
481 1092 1102 3 
482 1341 1342 1 
483 1341 1831 2 
484 847 848 1 
485 847 2077 2 
486 1342 1596 3 
487 1342 1860 3 
488 817 2319 2 
489 2319 2320 1 
490 841 843 2 
491 2610 2340 3 
492 2610 2609 1 
493 2045 2046 1 
494 2045 3043 2 
495 2828 3604 3 
496 2828 2827 1 
497 3604 3044 3 
498 3604 3603 1 
499 3044 2828 3 
500 3044 3043 1 
501 2580 2579 1 
502 2337 2338 1 
503 2337 2827 2 
504 2095 2096 1 
505 2095 2591 2 
506 4082 3818 3 
507 4082 4081 1 
508 4117 4341 2 
509 4123 4857 2 
510 3818 3612 3 
511 3818 3817 1 
512 3822 4572 3 
513 3822 3821 1 
514 3822 4610 3 
515 4610 4572 3 
516 4610 4609 1 
517 4572 3850 3 
518 4572 4571 1 
519 3850 3822 3 
520 3850 3849 1 
521 3850 4610 3 
522 3833 4571 2 
523 3833 3834 1 
524 4824 4886 3 
525 4544 4798 3 
526 4544 4543 1 
527 4886 4885 1 
528 3834 4114 3 
529 4798 3836 3 
530 4798 4797 1 
531 4604 5346 3 
532 4604 4603 1 
533 4340 4604 3 
534 4340 4339 1 
535 5346 4340 3 
536 5346 5345 1 
537 4823 4824 1 
538 5079 5345 2 
539 4836 5078 3 
540 4836 4835 1 
541 4836 5334 3 
542 5339 5589 2 
543 98 5620 3 
544 98 97 1 
545 343 831 2 
546 6106 98 3 
547 6106 6105 1 
548 5620 6106 3 
549 5620 5619 1 
550 653 1147 2 
551 115 857 2 
552 376 874 3 
553 874 873 1 
554 1637 1638 1 
555 839 1337 2 
556 1834 1108 3 
557 1834 1833 1 
558 862 1354 3 
559 862 861 1 
560 862 1834 3 
561 1354 1108 3 
562 1354 1353 1 
563 1354 1834 3 
564 1574 1586 3 
565 1574 1860 3 
566 1108 862 3 
567 1108 1107 1 
568 1596 1595 1 
569 1586 1585 1 
570 848 1368 3 
571 848 1586 3 
572 842 1582 3 
573 842 841 1 
574 842 848 3 
575 2063 2064 1 
576 1335 1336 1 
577 1335 1809 2 
578 2074 1810 3 
579 2074 2073 1 
580 2090 2074 3 
581 2090 2089 1 
582 1810 2090 3 
583 1810 1809 1 
584 1812 1810 3 
585 1812 1811 1 
586 1812 2074 3 
587 1812 2090 3 
588 818 1098 3 
589 818 817 1 
590 2120 818 3 
591 2120 2119 1 
592 1811 2623 2 
593 2601 2609 2 
594 1097 2565 2 
595 2109 2607 2 
596 2816 2082 3 
597 2082 2081 1 
598 1819 2577 2 
599 2096 2366 3 
600 2351 2357 2 
601 3093 3615 2 
602 2357 2358 1 
603 3092 3606 3 
604 3092 3091 1 
605 3606 3864 3 
606 3606 3605 1 
607 3864 3092 3 
608 3864 3863 1 
609 2584 3360 3 
610 2584 2583 1 
611 3360 3106 3 
612 3360 3359 1 
613 3112 2584 3 
614 3112 3111 1 
615 3112 3360 3 
616 3106 2584 3 
617 3106 3105 1 
618 3106 3112 3 
619 4346 4342 3 
620 4346 4345 1 
621 4822 4346 3 
622 4822 4821 1 
623 4342 4122 3 
624 4342 4822 3 
625 4342 4341 1 
626 3593 3863 2 
627 3111 3591 2 
628 3612 4082 3 
629 3612 3611 1 
630 3611 3837 2 
631 3334 3333 1 
632 3334 4124 3 
633 3334 3594 3 
634 2841 3333 2 
635 4114 4113 1 
636 5080 5562 3 
637 5080 5079 1 
638 4868 6140 3 
639 4868 4867 1 
640 4868 5586 3 
641 4868 5118 3 
642 109 125 2 
643 4375 4376 1 
644 4375 5375 2 
645 654 864 3 
646 654 653 1 
647 370 654 3 
648 370 369 1 
649 370 616 3 
650 370 864 3 
651 864 616 3 
652 864 863 1 
653 616 654 3 
654 616 615 1 
655 90 116 3 
656 116 115 1 
657 5638 586 3 
658 5638 5637 1 
659 832 5638 3 
660 832 831 1 
661 2566 2565 1 
662 1850 2566 3 
663 1852 1394 3 
664 1852 1851 1 
665 1630 1836 3 
666 1630 1629 1 
667 1630 2602 3 
668 1606 1630 3 
669 1606 1605 1 
670 2602 1606 3 
671 2602 2601 1 
672 1857 3099 2 
673 1836 1606 3 
674 1836 1835 1 
675 1836 2602 3 
676 3099 3100 1 
677 1849 1850 1 
678 2624 2344 3 
679 2624 2623 1 
680 1835 2115 2 
681 2608 2624 3 
682 2608 2607 1 
683 2608 2850 3 
684 2850 2624 3 
685 2850 2849 1 
686 2344 2850 3 
687 2344 2343 1 
688 2344 2608 3 
689 2854 2853 1 
690 3100 2854 3 
691 2363 2861 2 
692 2365 2595 2 
693 3084 2826 3 
694 3084 3083 1 
695 3127 3385 2 
696 2358 2870 3 
697 2870 2869 1 
698 2864 2894 3 
699 2864 2863 1 
700 2364 2864 3 
701 2364 2363 1 
702 2364 2894 3 
703 3379 3895 2 
704 4122 4822 3 
705 4122 4346 3 
706 4122 4121 1 
707 3591 3592 1 
708 4121 4607 2 
709 3375 3883 2 
710 3625 3626 1 
711 3625 3851 2 
712 4383 4889 2 
713 5351 5817 2 
714 5586 5118 3 
715 5586 5585 1 
716 5611 5841 2 
717 603 851 2 
718 1079 1080 1 
719 1079 1355 2 
720 877 5875 2 
721 615 1431 2 
722 5597 5598 1 
723 5597 5637 2 
724 1601 1602 1 
725 1137 1138 1 
726 1137 1375 2 
727 1617 2855 2 
728 1625 1629 2 
729 1131 1139 2 
730 1605 1869 2 
731 1862 1590 3 
732 1862 1861 1 
733 1589 1849 2 
734 1132 3134 3 
735 1132 1131 1 
736 2372 1132 3 
737 2372 2371 1 
738 3134 2372 3 
739 3134 3133 1 
740 1858 1857 1 
741 1858 3340 3 
742 1858 2616 3 
743 2616 2856 3 
744 2616 2615 1 
745 1867 1868 1 
746 1867 2371 2 
747 2343 2369 2 
748 1847 2615 2 
749 2595 2596 1 
750 1848 1847 1 
751 2611 3083 2 
752 2611 2612 1 
753 2596 1848 3 
754 2869 3117 2 
755 3644 3844 3 
756 3644 3643 1 
757 3844 3380 3 
758 3844 3843 1 
759 3380 3644 3 
760 3380 3379 1 
761 3397 3843 2 
762 3852 3898 3 
763 3852 3851 1 
764 3898 2866 3 
765 3898 3897 1 
766 2866 3852 3 
767 2866 2865 1 
768 3144 3376 3 
769 3144 3143 1 
770 3376 4146 3 
771 3376 3375 1 
772 4146 3144 3 
773 4146 4145 1 
774 2335 3123 2 
775 2865 3901 2 
776 3626 4370 3 
777 3626 4870 3 
778 3626 4104 3 
779 4370 4104 3 
780 4370 4369 1 
781 4851 4881 2 
782 4104 4870 3 
783 4104 4103 1 
784 4362 4384 3 
785 4384 4383 1 
786 6116 5626 3 
787 5626 5625 1 
788 852 851 1 
789 1080 852 3 
790 342 102 3 
791 342 341 1 
792 342 878 3 
793 878 6086 3 
794 878 877 1 
795 6086 342 3 
796 6086 6085 1 
797 5842 5841 1 
798 1356 1106 3 
799 1356 1355 1 
800 1432 1356 3 
801 1432 1431 1 
802 1106 1432 3 
803 1106 1105 1 
804 5858 5857 1 
805 5598 5858 3 
806 414 1376 3 
807 1376 1375 1 
808 895 1873 2 
809 1651 1652 1 
810 1651 1917 2 
811 1381 1382 1 
812 1381 1897 2 
813 1855 1899 2 
814 2376 1862 3 
815 2376 2375 1 
816 1590 2376 3 
817 1590 1589 1 
818 2903 3133 2 
819 2903 2904 1 
820 2390 2389 1 
821 2904 2390 3 
822 1853 2155 2 
823 2676 2658 3 
824 2676 2675 1 
825 3668 2676 3 
826 3668 3667 1 
827 3418 2676 3 
828 3418 3417 1 
829 3418 3668 3 
830 3370 3369 1 
831 3162 3370 3 
832 3371 3372 1 
833 2877 3897 2 
834 4923 4924 1 
835 4924 3622 3 
836 5356 5122 3 
837 5356 5355 1 
838 4882 5114 3 
839 4882 4881 1 
840 5114 4638 3 
841 5114 5113 1 
842 5121 5143 2 
843 4638 4882 3 
844 4638 4637 1 
845 4638 4864 3 
846 5122 4120 3 
847 5122 5121 1 
848 5127 5361 2 
849 6148 416 3 
850 6148 6147 1 
851 144 6148 3 
852 144 143 1 
853 381 659 2 
854 413 1429 2 
855 413 414 1 
856 185 1161 2 
857 1874 1900 3 
858 1874 1873 1 
859 1918 1874 3 
860 1918 1917 1 
861 1900 1918 3 
862 1900 1899 1 
863 1358 1874 3 
864 1358 1357 1 
865 1358 1918 3 
866 1358 1900 3 
867 1624 1162 3 
868 1624 1623 1 
869 1624 1682 3 
870 1898 1624 3 
871 1898 1897 1 
872 1162 1898 3 
873 1162 1161 1 
874 2374 2174 3 
875 2374 2373 1 
876 1907 2373 2 
877 2655 3151 2 
878 2872 2402 3 
879 2872 2871 1 
880 3161 4141 2 
881 3161 3162 1 
882 3146 3130 3 
883 3146 3145 1 
884 3130 3636 3 
885 3130 3129 1 
886 3636 3146 3 
887 3636 3635 1 
888 3372 3910 3 
889 3910 3909 1 
890 3622 3621 1 
891 4678 4677 1 
892 5394 4678 3 
893 4397 5355 2 
894 5154 5144 3 
895 5144 5143 1 
896 5664 4138 3 
897 4138 4137 1 
898 4406 4932 3 
899 4406 4405 1 
900 5431 5653 2 
901 5432 5888 3 
902 5432 5431 1 
903 5623 5895 2 
904 6188 6150 3 
905 6188 6187 1 
906 660 6150 3 
907 660 659 1 
908 660 5172 3 
909 660 6188 3 
910 5172 6188 3 
911 5172 5171 1 
912 6150 5172 3 
913 6150 6149 1 
914 642 144 3 
915 642 641 1 
916 642 6148 3 
917 416 144 3 
918 416 415 1 
919 416 642 3 
920 409 6187 2 
921 410 186 3 
922 410 409 1 
923 392 410 3 
924 392 391 1 
925 392 1692 3 
926 186 1692 3 
927 186 185 1 
928 186 392 3 
929 1692 410 3 
930 1692 1691 1 
931 622 1144 3 
932 622 621 1 
933 953 1623 2 
934 2361 2362 1 
935 939 2361 2 
936 2656 2934 3 
937 2656 2655 1 
938 2656 3680 3 
939 3174 2656 3 
940 3174 3173 1 
941 3174 3680 3 
942 2934 3174 3 
943 2934 2933 1 
944 5393 5394 1 
945 3886 2912 3 
946 2912 2911 1 
947 4893 5153 2 
948 5153 5154 1 
949 4657 4658 1 
950 4657 5167 2 
951 4399 5617 2 
952 4400 4888 3 
953 4400 4399 1 
954 4888 4878 3 
955 4888 4887 1 
956 4878 4400 3 
957 4878 4877 1 
958 155 6135 2 
959 426 425 1 
960 1208 1182 3 
961 1208 1207 1 
962 954 1208 3 
963 954 953 1 
964 954 1174 3 
965 1174 1208 3 
966 1174 1173 1 
967 1174 1182 3 
968 1182 954 3 
969 1182 1181 1 
970 2661 2667 2 
971 2673 3165 2 
972 2670 2192 3 
973 2670 2669 1 
974 2670 2674 3 
975 2197 2691 2 
976 3163 3173 2 
977 3912 4172 3 
978 3912 3911 1 
979 4172 3396 3 
980 4172 4171 1 
981 3396 3912 3 
982 3396 3395 1 
983 3164 3666 3 
984 3164 3163 1 
985 3164 3388 3 
986 3666 3906 3 
987 3666 3665 1 
988 3388 3906 3 
989 3388 3387 1 
990 3388 3666 3 
991 3906 3164 3 
992 3906 3905 1 
993 4652 5168 3 
994 4652 4651 1 
995 4894 4652 3 
996 4894 4893 1 
997 4894 5618 3 
998 5618 4652 3 
999 5618 5617 1 
1000 5168 4894 3 
1001 5168 5167 1 
1002 5168 5618 3 
1003 5406 5405 1 
1004 6138 5406 3 
1005 689 893 2 
1006 669 945 2 
1007 673 951 2 
1008 405 913 2 
1009 425 447 2 
1010 952 460 3 
1011 952 951 1 
1012 702 952 3 
1013 702 701 1 
1014 460 702 3 
1015 460 459 1 
1016 460 692 3 
1017 692 702 3 
1018 692 691 1 
1019 692 952 3 
1020 922 921 1 
1021 1914 922 3 
1022 1688 2432 3 
1023 1688 1687 1 
1024 2432 1706 3 
1025 2432 2431 1 
1026 1687 1949 2 
1027 1435 1436 1 
1028 1435 2447 2 
1029 2198 2684 3 
1030 2198 2197 1 
1031 4163 4164 1 
1032 3939 4163 2 
1033 4167 4457 2 
1034 6217 6218 1 
1035 5183 5453 2 
1036 5425 5426 1 
1037 5425 5955 2 
1038 1178 894 3 
1039 1178 1177 1 
1040 670 1178 3 
1041 670 669 1 
1042 894 670 3 
1043 894 893 1 
1044 693 1177 2 
1045 427 428 1 
1046 451 452 1 
1047 451 5993 2 
1048 657 683 2 
1049 1180 458 3 
1050 1180 1179 1 
1051 459 935 2 
1052 936 682 3 
1053 936 935 1 
1054 710 936 3 
1055 710 709 1 
1056 672 936 3 
1057 672 671 1 
1058 672 710 3 
1059 682 672 3 
1060 682 681 1 
1061 682 710 3 
1062 2426 1940 3 
1063 1447 1693 2 
1064 671 921 2 
1065 1665 1666 1 
1066 1453 1665 2 
1067 1950 2440 3 
1068 1950 1949 1 
1069 2440 2926 3 
1070 2440 2439 1 
1071 1966 1965 1 
1072 3401 3435 2 
1073 3401 3402 1 
1074 2926 2442 3 
1075 2926 1950 3 
1076 2926 2925 1 
1077 2900 2899 1 
1078 3402 2900 3 
1079 2899 3673 2 
1080 4672 4671 1 
1081 4220 4672 3 
1082 4219 4693 2 
1083 4219 4220 1 
1084 3460 3459 1 
1085 3976 3460 3 
1086 4694 3686 3 
1087 4694 4693 1 
1088 4682 4212 3 
1089 4682 4681 1 
1090 4682 4694 3 
1091 3686 4212 3 
1092 3686 3685 1 
1093 3686 4682 3 
1094 3929 4667 2 
1095 4166 3430 3 
1096 4166 4165 1 
1097 3930 4166 3 
1098 3930 3929 1 
1099 4444 4458 3 
1100 4458 4457 1 
1101 3430 3930 3 
1102 3430 3429 1 
1103 4199 4933 2 
1104 5224 5223 1 
1105 5458 5224 3 
1106 5195 5196 1 
1107 5195 5219 2 
1108 4186 5218 3 
1109 4186 4185 1 
1110 4186 4460 3 
1111 4186 5220 3 
1112 5220 4460 3 
1113 5220 5219 1 
1114 6222 5210 3 
1115 6222 6221 1 
1116 6218 424 3 
1117 424 423 1 
1118 5210 5454 3 
1119 5210 5209 1 
1120 5229 5931 2 
1121 5454 6222 3 
1122 5454 5453 1 
1123 194 193 1 
1124 196 194 3 
1125 197 449 2 
1126 450 6198 3 
1127 450 449 1 
1128 6198 5960 3 
1129 6198 6197 1 
1130 5960 450 3 
1131 5960 5959 1 
1132 428 694 3 
1133 5994 730 3 
1134 694 693 1 
1135 453 923 2 
1136 730 729 1 
1137 454 6192 3 
1138 454 453 1 
1139 432 454 3 
1140 432 431 1 
1141 5993 5994 1 
1142 680 666 3 
1143 680 679 1 
1144 680 1186 3 
1145 666 434 3 
1146 666 665 1 
1147 434 680 3 
1148 434 433 1 
1149 434 1186 3 
1150 950 238 3 
1151 1186 666 3 
1152 1186 1185 1 
1153 458 436 3 
1154 458 457 1 
1155 436 1180 3 
1156 436 435 1 
1157 457 6199 2 
1158 679 6175 2 
1159 709 1461 2 
1160 1217 1941 2 
1161 681 961 2 
1162 1940 1939 1 
1163 1964 1720 3 
1164 1964 1963 1 
1165 1964 2206 3 
1166 1942 1964 3 
1167 1942 1941 1 
1168 1942 2206 3 
1169 1666 1454 3 
1170 1720 1719 1 
1171 1720 2206 3 
1172 1204 1684 3 
1173 1204 1203 1 
1174 2442 1950 3 
1175 2442 2440 3 
1176 2442 2441 1 
1177 3225 3963 2 
1178 3946 3450 3 
1179 3946 3945 1 
1180 3450 3958 3 
1181 3450 3449 1 
1182 3958 3946 3 
1183 3958 3957 1 
1184 2948 3958 3 
1185 2948 2947 1 
1186 2948 3450 3 
1187 2948 3946 3 
1188 2446 2930 3 
1189 2446 3458 3 
1190 2446 3190 3 
1191 3190 3189 1 
1192 2930 3190 3 
1193 3712 3928 3 
1194 3712 3711 1 
1195 3459 3957 2 
1196 3449 3941 2 
1197 3738 3737 1 
1198 3719 3931 2 
1199 3701 3975 2 
1200 3211 3723 2 
1201 3702 3701 1 
1202 3974 3738 3 
1203 4211 4465 2 
1204 4443 4444 1 
1205 4209 5451 2 
1206 3707 4443 2 
1207 4718 4964 3 
1208 4718 4717 1 
1209 4936 4718 3 
1210 4936 4935 1 
1211 4161 5199 2 
1212 4448 4210 3 
1213 4448 4447 1 
1214 4448 5442 3 
1215 4698 4448 3 
1216 4698 4697 1 
1217 4698 5442 3 
1218 5442 4210 3 
1219 5442 5441 1 
1220 4210 4698 3 
1221 4210 4209 1 
1222 5476 4434 3 
1223 5476 5475 1 
1224 4934 4933 1 
1225 5457 5458 1 
1226 4697 5457 2 
1227 4434 4184 3 
1228 4434 4433 1 
1229 4469 4470 1 
1230 4469 4703 2 
1231 4958 4434 3 
1232 4958 4957 1 
1233 4958 5476 3 
1234 4184 4958 3 
1235 4184 4183 1 
1236 4184 5476 3 
1237 4460 5218 3 
1238 4460 4459 1 
1239 4447 5217 2 
1240 5218 5220 3 
1241 5218 5217 1 
1242 4704 4980 3 
1243 4704 4703 1 
1244 4704 5954 3 
1245 423 5933 2 
1246 5230 5470 3 
1247 5230 5229 1 
1248 5230 6240 3 
1249 923 924 1 
1250 924 920 3 
1251 698 924 3 
1252 698 920 3 
1253 920 919 1 
1254 716 920 3 
1255 716 6220 3 
1256 200 698 3 
1257 200 716 3 
1258 200 924 3 
1259 6220 6219 1 
1260 433 697 2 
1261 6197 6219 2 
1262 697 698 1 
1263 238 237 1 
1264 222 178 3 
1265 178 177 1 
1266 216 6200 3 
1267 216 215 1 
1268 216 1714 3 
1269 6200 472 3 
1270 6200 6199 1 
1271 472 216 3 
1272 472 471 1 
1273 472 1714 3 
1274 1714 6200 3 
1275 1714 1713 1 
1276 1225 1421 2 
1277 1708 2212 3 
1278 1708 1707 1 
1279 3967 3977 2 
1280 2445 2446 1 
1281 2445 3207 2 
1282 2946 2704 3 
1283 2946 2945 1 
1284 2946 3226 3 
1285 2704 3424 3 
1286 2704 2703 1 
1287 3226 2704 3 
1288 3226 3225 1 
1289 3226 3424 3 
1290 3424 2946 3 
1291 3424 3423 1 
1292 3968 3967 1 
1293 3926 3968 3 
1294 3421 3422 1 
1295 3421 3711 2 
1296 3422 3702 3 
1297 3933 3959 2 
1298 3212 3470 3 
1299 3212 3211 1 
1300 4230 3212 3 
1301 4230 4229 1 
1302 3470 4230 3 
1303 3470 3469 1 
1304 3465 3749 2 
1305 3466 3762 3 
1306 3466 3465 1 
1307 3762 4464 3 
1308 3762 3761 1 
1309 4464 3466 3 
1310 4464 4463 1 
1311 3761 5441 2 
1312 4988 4438 3 
1313 4988 4987 1 
1314 4474 4206 3 
1315 4474 4473 1 
1316 4474 4988 3 
1317 4206 4988 3 
1318 4206 4205 1 
1319 4438 4206 3 
1320 4438 4437 1 
1321 4438 4474 3 
1322 4454 5228 3 
1323 4454 4453 1 
1324 4981 5203 2 
1325 5464 232 3 
1326 5464 5463 1 
1327 466 5464 3 
1328 466 465 1 
1329 232 466 3 
1330 232 231 1 
1331 4960 4959 1 
1332 227 228 1 
1333 227 993 2 
1334 464 463 1 
1335 480 464 3 
1336 237 1493 2 
1337 1458 1470 3 
1338 1458 1457 1 
1339 1491 1735 2 
1340 1486 2236 3 
1341 1486 1485 1 
1342 1486 2730 3 
1343 1486 1736 3 
1344 1736 2730 3 
1345 1736 1735 1 
1346 2236 1736 3 
1347 2236 2235 1 
1348 1477 1991 2 
1349 2730 2236 3 
1350 2730 2729 1 
1351 1991 1992 1 
1352 2461 2462 1 
1353 2460 2700 3 
1354 2460 2459 1 
1355 2232 2460 3 
1356 2232 2231 1 
1357 2232 2700 3 
1358 2232 3472 3 
1359 3472 2460 3 
1360 3472 3471 1 
1361 2700 3472 3 
1362 2700 2699 1 
1363 3208 2190 3 
1364 3208 3984 3 
1365 3208 3207 1 
1366 2450 3208 3 
1367 2450 2449 1 
1368 2190 3984 3 
1369 2190 2450 3 
1370 2190 2189 1 
1371 3984 2450 3 
1372 3984 3983 1 
1373 3473 3474 1 
1374 3473 4193 2 
1375 4004 3468 3 
1376 4004 4003 1 
1377 2516 4004 3 
1378 2516 2515 1 
1379 4194 4198 3 
1380 4194 4193 1 
1381 4194 4208 3 
1382 4208 4198 3 
1383 4208 4207 1 
1384 3477 3721 2 
1385 4198 3960 3 
1386 4198 4197 1 
1387 3960 4194 3 
1388 3960 3959 1 
1389 3960 4208 3 
1390 5028 4232 3 
1391 5028 5027 1 
1392 4232 4016 3 
1393 4232 4231 1 
1394 4970 4260 3 
1395 4970 4969 1 
1396 4016 5028 3 
1397 4016 4015 1 
1398 4479 4713 2 
1399 4982 4992 3 
1400 4982 4981 1 
1401 4714 4982 3 
1402 4714 4713 1 
1403 4992 4714 3 
1404 4992 4991 1 
1405 4733 4734 1 
1406 4733 5025 2 
1407 5246 5248 3 
1408 231 5973 2 
1409 5181 5182 1 
1410 5181 6249 2 
1411 241 5709 2 
1412 5182 4960 3 
1413 438 6238 3 
1414 438 437 1 
1415 438 504 3 
1416 438 6250 3 
1417 504 6238 3 
1418 504 503 1 
1419 6250 504 3 
1420 6250 6249 1 
1421 6238 6250 3 
1422 6238 6237 1 
1423 463 971 2 
1424 7 497 2 
1425 971 972 1 
1426 254 5982 3 
1427 254 253 1 
1428 254 6026 3 
1429 6026 5982 3 
1430 6026 6025 1 
1431 5982 508 3 
1432 5982 5981 1 
1433 987 988 1 
1434 987 6229 2 
1435 731 749 2 
1436 1216 1458 3 
1437 1216 1215 1 
1438 1470 1216 3 
1439 1470 1469 1 
1440 5 733 2 
1441 1232 1492 3 
1442 1232 1231 1 
1443 1232 2246 3 
1444 2246 1492 3 
1445 2246 2245 1 
1446 1492 1254 3 
1447 1492 1491 1 
1448 1478 1477 1 
1449 1474 1478 3 
1450 736 1224 3 
1451 736 735 1 
1452 1473 1474 1 
1453 2215 2705 2 
1454 2966 2710 3 
1455 2966 2965 1 
1456 2710 2990 3 
1457 2710 2709 1 
1458 2990 2966 3 
1459 2990 2989 1 
1460 3979 3983 2 
1461 3980 3979 1 
1462 3474 3980 3 
1463 3468 2516 3 
1464 3468 3467 1 
1465 3467 3735 2 
1466 4480 4970 3 
1467 4480 4479 1 
1468 3774 4260 3 
1469 3774 3773 1 
1470 3774 4970 3 
1471 3774 4480 3 
1472 4260 4480 3 
1473 4260 4259 1 
1474 4259 4721 2 
1475 4231 4751 2 
1476 4722 4990 3 
1477 4722 4721 1 
1478 4284 5222 3 
1479 4284 4283 1 
1480 4284 4722 3 
1481 4284 4990 3 
1482 4990 5222 3 
1483 4990 4989 1 
1484 5222 4722 3 
1485 5222 5221 1 
1486 5493 5494 1 
1487 5248 5247 1 
1488 5487 5991 2 
1489 5974 226 3 
1490 5974 5973 1 
1491 242 5974 3 
1492 242 226 3 
1493 242 241 1 
1494 236 242 3 
1495 236 5974 3 
1496 236 235 1 
1497 226 236 3 
1498 226 225 1 
1499 508 254 3 
1500 508 507 1 
1501 508 6026 3 
1502 5720 192 3 
1503 5720 5719 1 
1504 264 192 3 
1505 264 263 1 
1506 264 5720 3 
1507 192 8 3 
1508 192 191 1 
1509 8 264 3 
1510 8 7 1 
1511 8 5720 3 
1512 243 475 2 
1513 475 476 1 
1514 1004 750 3 
1515 1004 1003 1 
1516 750 734 3 
1517 750 749 1 
1518 972 1004 3 
1519 476 972 3 
1520 476 750 3 
1521 734 1004 3 
1522 734 733 1 
1523 734 972 3 
1524 11 6051 2 
1525 247 5753 2 
1526 6051 6052 1 
1527 1245 1246 1 
1528 3 747 2 
1529 983 1245 2 
1530 1730 736 3 
1531 1730 1729 1 
1532 2752 2260 3 
1533 2224 2972 3 
1534 2224 2223 1 
1535 2242 2224 3 
1536 2242 2241 1 
1537 4257 4258 1 
1538 3735 3736 1 
1539 3798 3812 3 
1540 3798 3797 1 
1541 3812 3016 3 
1542 3812 3811 1 
1543 3491 3492 1 
1544 3491 4485 2 
1545 3773 4747 2 
1546 5764 4782 3 
1547 5764 5763 1 
1548 5006 5764 3 
1549 5006 5005 1 
1550 964 5488 3 
1551 5488 5487 1 
1552 225 6025 2 
1553 489 519 2 
1554 250 6008 3 
1555 250 249 1 
1556 250 1006 3 
1557 249 5517 2 
1558 33 501 2 
1559 5730 5729 1 
1560 46 5730 3 
1561 501 502 1 
1562 525 526 1 
1563 45 5999 2 
1564 45 46 1 
1565 310 309 1 
1566 1276 1030 3 
1567 1276 1275 1 
1568 1012 782 3 
1569 1012 1011 1 
1570 1012 1030 3 
1571 1012 1276 3 
1572 782 1276 3 
1573 782 781 1 
1574 711 721 2 
1575 526 522 3 
1576 526 1022 3 
1577 270 522 3 
1578 270 768 3 
1579 270 526 3 
1580 722 1510 3 
1581 722 721 1 
1582 522 521 1 
1583 522 768 3 
1584 768 1022 3 
1585 1030 782 3 
1586 1030 1029 1 
1587 781 1523 2 
1588 502 1022 3 
1589 502 516 3 
1590 284 283 1 
1591 284 502 3 
1592 764 310 3 
1593 485 1239 2 
1594 516 284 3 
1595 1510 1260 3 
1596 1510 1509 1 
1597 1239 1240 1 
1598 233 269 2 
1599 269 270 1 
1600 1013 1241 2 
1601 1264 1756 3 
1602 1264 1263 1 
1603 974 714 3 
1604 974 973 1 
1605 974 1264 3 
1606 974 1756 3 
1607 1021 1022 1 
1608 741 742 1 
1609 741 973 2 
1610 1228 1000 3 
1611 1228 1227 1 
1612 1222 1228 3 
1613 1222 1221 1 
1614 1000 1222 3 
1615 1000 999 1 
1616 1019 1779 2 
1617 1769 1770 1 
1618 509 1243 2 
1619 1748 1766 3 
1620 1748 1747 1 
1621 1724 1748 3 
1622 1724 1723 1 
1623 1724 2012 3 
1624 1766 1724 3 
1625 1766 1765 1 
1626 1766 2012 3 
1627 2024 2023 1 
1628 1744 2024 3 
1629 1280 1786 3 
1630 1280 1279 1 
1631 1786 1008 3 
1632 1786 1785 1 
1633 1279 2019 2 
1634 1008 1280 3 
1635 1008 1007 1 
1636 1008 1508 3 
1637 1508 1280 3 
1638 1508 1507 1 
1639 1508 1786 3 
1640 2279 2509 2 
1641 2012 1748 3 
1642 2012 2011 1 
1643 2741 2742 1 
1644 2011 2741 2 
1645 1511 1512 1 
1646 1511 1743 2 
1647 1743 1744 1 
1648 2791 3267 2 
1649 1752 1751 1 
1650 1518 2492 3 
1651 1518 2254 3 
1652 1518 2786 3 
1653 2492 2506 3 
1654 2280 2279 1 
1655 2280 2492 3 
1656 2280 2786 3 
1657 2254 2280 3 
1658 2254 2786 3 
1659 2742 1752 3 
1660 1538 2506 3 
1661 3018 2760 3 
1662 2760 2759 1 
1663 2481 2482 1 
1664 2481 3017 2 
1665 2276 2018 3 
1666 2276 2275 1 
1667 2508 2276 3 
1668 2508 2507 1 
1669 2508 2754 3 
1670 3017 3018 1 
1671 2018 2508 3 
1672 2018 2017 1 
1673 2018 2754 3 
1674 2754 2276 3 
1675 2754 2753 1 
1676 2017 2513 2 
1677 3510 3010 3 
1678 3510 3509 1 
1679 3010 3986 3 
1680 3010 3009 1 
1681 3986 3510 3 
1682 3986 3985 1 
1683 2536 2535 1 
1684 2496 2536 3 
1685 1503 2761 2 
1686 3005 3229 2 
1687 2998 2514 3 
1688 2998 2997 1 
1689 3303 3304 1 
1690 3227 3303 2 
1691 3261 3545 2 
1692 2983 2997 2 
1693 2983 2984 1 
1694 2490 2248 3 
1695 2490 2489 1 
1696 2490 3448 3 
1697 2248 3012 3 
1698 2248 2247 1 
1699 2248 3448 3 
1700 3756 3004 3 
1701 3756 3755 1 
1702 3522 3521 1 
1703 3030 3756 3 
1704 3030 3029 1 
1705 3030 3278 3 
1706 3004 3030 3 
1707 3004 3003 1 
1708 3269 3270 1 
1709 2783 3269 2 
1710 3278 4258 3 
1711 3278 3522 3 
1712 4024 4023 1 
1713 3270 4024 3 
1714 4258 3522 3 
1715 3990 3989 1 
1716 3768 3764 3 
1717 3768 3767 1 
1718 3778 3768 3 
1719 3778 3777 1 
1720 3764 3778 3 
1721 3764 3763 1 
1722 4278 4266 3 
1723 4278 4277 1 
1724 4245 4529 2 
1725 4272 4278 3 
1726 4272 4271 1 
1727 4270 4272 3 
1728 4270 4269 1 
1729 4270 4278 3 
1730 4266 4272 3 
1731 4266 4265 1 
1732 4266 4270 3 
1733 4271 4743 2 
1734 4237 4238 1 
1735 4749 5045 2 
1736 4750 5482 3 
1737 4750 4749 1 
1738 3511 3512 1 
1739 5482 4250 3 
1740 5482 5481 1 
1741 4498 4728 3 
1742 4498 4497 1 
1743 4498 4794 3 
1744 4728 4268 3 
1745 4728 4727 1 
1746 4794 4728 3 
1747 4794 4793 1 
1748 4268 4498 3 
1749 4268 4267 1 
1750 4268 4794 3 
1751 4250 4750 3 
1752 4250 4249 1 
1753 4732 5234 3 
1754 4732 4731 1 