ITEM: TIMESTEP
23760
ITEM: NUMBER OF ENTRIES
5443
ITEM: BOX BOUNDS pp pp ff
0.0000000000000000e+00 7.2168784000000002e+01
0.0000000000000000e+00 7.2168784000000002e+01
0.0000000000000000e+00 1.2000000000000000e+01
ITEM: ENTRIES index c_1[1] c_1[2] c_1[3]
1 251 252 1 
2 5518 5754 3 
3 6017 6018 1 
4 33 501 2 
5 485 1239 2 
6 269 270 1 
7 233 269 2 
8 6 5 1 
9 506 234 3 
10 234 233 1 
11 1765 1766 1 
12 2251 2489 2 
13 2489 2490 1 
14 2495 2496 1 
15 2503 2504 1 
16 2503 2739 2 
17 2778 3006 3 
18 2778 2777 1 
19 3006 2992 3 
20 3006 3005 1 
21 3010 3986 3 
22 3010 3009 1 
23 3986 3510 3 
24 3986 3985 1 
25 3510 3010 3 
26 3510 3509 1 
27 3763 3764 1 
28 3778 3777 1 
29 3503 3504 1 
30 3757 3758 1 
31 3491 3492 1 
32 3281 3282 1 
33 3761 3762 1 
34 4048 4500 3 
35 4048 4047 1 
36 4761 4762 1 
37 4500 4276 3 
38 4500 4499 1 
39 4276 4048 3 
40 4276 4275 1 
41 4275 5525 2 
42 4741 4742 1 
43 4521 4522 1 
44 4521 4761 2 
45 5525 5526 1 
46 4515 4741 2 
47 6245 6246 1 
48 4735 4736 1 
49 4493 4494 1 
50 4493 4735 2 
51 6003 6004 1 
52 5017 5018 1 
53 5017 5239 2 
54 5239 5240 1 
55 4755 5501 2 
56 5741 5742 1 
57 6231 6232 1 
58 6008 6224 3 
59 6008 6007 1 
60 6224 250 3 
61 6224 6223 1 
62 250 6008 3 
63 250 249 1 
64 6001 6002 1 
65 5754 5753 1 
66 5517 5518 1 
67 6241 6242 1 
68 6022 248 3 
69 6022 6021 1 
70 257 258 1 
71 257 6241 2 
72 248 12 3 
73 248 247 1 
74 12 34 3 
75 12 11 1 
76 12 6022 3 
77 34 248 3 
78 34 33 1 
79 34 6022 3 
80 271 272 1 
81 6010 6009 1 
82 6010 5766 3 
83 6242 6010 3 
84 501 502 1 
85 525 526 1 
86 270 522 3 
87 270 768 3 
88 270 526 3 
89 526 522 3 
90 526 1022 3 
91 768 1022 3 
92 522 521 1 
93 522 768 3 
94 515 516 1 
95 1020 1002 3 
96 1020 1019 1 
97 1002 536 3 
98 1002 1001 1 
99 536 1020 3 
100 536 535 1 
101 1018 1040 3 
102 1018 1017 1 
103 1018 1534 3 
104 1274 1018 3 
105 1274 1273 1 
106 1534 1274 3 
107 1534 1533 1 
108 1040 1274 3 
109 1040 1039 1 
110 1040 1534 3 
111 1767 1768 1 
112 2536 2535 1 
113 2496 2536 3 
114 2762 1504 3 
115 2762 2761 1 
116 1504 2252 3 
117 1504 1503 1 
118 2252 2732 3 
119 2252 2251 1 
120 2252 2762 3 
121 2732 1504 3 
122 2732 2731 1 
123 2732 2762 3 
124 3002 2778 3 
125 3002 3001 1 
126 3002 3006 3 
127 2992 2778 3 
128 2992 2991 1 
129 2992 3002 3 
130 2531 2731 2 
131 2772 2530 3 
132 2772 2771 1 
133 3495 3496 1 
134 3263 3535 2 
135 3526 3525 1 
136 3512 3526 3 
137 3535 3536 1 
138 3015 3525 2 
139 3511 3512 1 
140 3539 3540 1 
141 3253 3254 1 
142 4534 5036 3 
143 4534 4533 1 
144 5036 4282 3 
145 5036 5035 1 
146 4282 4264 3 
147 4282 4281 1 
148 4282 4534 3 
149 4264 5036 3 
150 4264 4263 1 
151 4264 4534 3 
152 5002 5001 1 
153 4746 5002 3 
154 5289 5290 1 
155 5013 5014 1 
156 4745 4746 1 
157 4745 5021 2 
158 247 5753 2 
159 274 273 1 
160 274 6010 3 
161 273 541 2 
162 11 6051 2 
163 6051 6052 1 
164 23 24 1 
165 785 786 1 
166 767 768 1 
167 767 1043 2 
168 778 777 1 
169 1042 778 3 
170 539 540 1 
171 1047 1048 1 
172 771 772 1 
173 771 1533 2 
174 2062 1528 3 
175 2062 2061 1 
176 1528 1284 3 
177 1528 1527 1 
178 1521 1522 1 
179 1282 1281 1 
180 2539 2540 1 
181 2571 2572 1 
182 2313 2775 2 
183 2313 2314 1 
184 3041 3042 1 
185 2512 2530 3 
186 2512 2522 3 
187 2532 2772 3 
188 2532 2531 1 
189 2530 2532 3 
190 2530 2529 1 
191 2522 2532 3 
192 2522 2772 3 
193 3026 2798 3 
194 3026 3025 1 
195 3272 3034 3 
196 3272 3271 1 
197 3272 3538 3 
198 3264 3538 3 
199 3264 3263 1 
200 3264 3272 3 
201 3538 3034 3 
202 3538 3537 1 
203 3034 3264 3 
204 3034 3033 1 
205 2784 2783 1 
206 3790 3534 3 
207 3790 3789 1 
208 3534 3316 3 
209 3534 3533 1 
210 3311 3312 1 
211 3311 3547 2 
212 3316 2524 3 
213 3316 3315 1 
214 3316 3790 3 
215 2524 3534 3 
216 2524 2523 1 
217 2524 3790 3 
218 3016 3015 1 
219 3540 4524 3 
220 4524 4523 1 
221 3812 3016 3 
222 5319 5320 1 
223 6036 6035 1 
224 524 6036 3 
225 6045 6046 1 
226 21 22 1 
227 21 511 2 
228 523 524 1 
229 538 322 3 
230 538 537 1 
231 295 296 1 
232 295 815 2 
233 1044 1043 1 
234 815 816 1 
235 1048 1044 3 
236 1031 1032 1 
237 1283 1521 2 
238 1284 2062 3 
239 1284 1283 1 
240 1281 1541 2 
241 1541 1542 1 
242 1781 1782 1 
243 1515 1516 1 
244 1787 1788 1 
245 2044 2564 3 
246 2044 2043 1 
247 2776 2044 3 
248 2776 2775 1 
249 2564 2776 3 
250 2564 2563 1 
251 2327 2328 1 
252 2563 2817 2 
253 2519 2520 1 
254 2551 2552 1 
255 2817 2818 1 
256 2301 2302 1 
257 3292 3291 1 
258 3310 3292 3 
259 3548 3284 3 
260 3548 3547 1 
261 3309 3310 1 
262 3031 3032 1 
263 3031 3309 2 
264 3284 3048 3 
265 3284 3283 1 
266 3048 3548 3 
267 3048 3047 1 
268 3241 3242 1 
269 4301 4302 1 
270 4302 5292 3 
271 5292 5291 1 
272 5792 5566 3 
273 5792 5791 1 
274 5532 5531 1 
275 5320 5532 3 
276 35 6035 2 
277 5787 5788 1 
278 5787 6045 2 
279 17 18 1 
280 322 6044 3 
281 322 321 1 
282 6044 538 3 
283 6044 6043 1 
284 545 553 2 
285 796 800 3 
286 1290 1792 3 
287 1290 1289 1 
288 2542 1554 3 
289 2542 2541 1 
290 1554 1532 3 
291 1554 1553 1 
292 1792 2308 3 
293 1792 1791 1 
294 2308 1290 3 
295 2308 2307 1 
296 1302 1301 1 
297 1572 1302 3 
298 2053 2054 1 
299 1571 1572 1 
300 1571 1781 2 
301 1291 1292 1 
302 1795 1796 1 
303 1795 2053 2 
304 1798 1797 1 
305 2292 1824 3 
306 2292 2291 1 
307 1562 1798 3 
308 2022 1824 3 
309 2022 2021 1 
310 2022 2292 3 
311 1824 1800 3 
312 1824 1823 1 
313 2801 2802 1 
314 2065 2066 1 
315 2821 3317 2 
316 3317 3318 1 
317 3791 3792 1 
318 3776 3775 1 
319 3332 3776 3 
320 3589 3590 1 
321 4051 4052 1 
322 3331 3332 1 
323 4326 3556 3 
324 4325 4326 1 
325 4551 4552 1 
326 4315 4316 1 
327 5073 5074 1 
328 4783 4784 1 
329 4767 4768 1 
330 4767 4783 2 
331 4305 4306 1 
332 4053 4305 2 
333 5048 5792 3 
334 5048 5047 1 
335 5566 5048 3 
336 5566 5565 1 
337 4303 4304 1 
338 4813 5565 2 
339 4804 5296 3 
340 4803 4804 1 
341 5798 5797 1 
342 4574 5798 3 
343 5801 5802 1 
344 5551 5552 1 
345 5813 5814 1 
346 4573 4574 1 
347 6061 6062 1 
348 5302 5301 1 
349 5779 5780 1 
350 294 52 3 
351 294 293 1 
352 294 5548 3 
353 52 6064 3 
354 52 51 1 
355 52 5548 3 
356 5548 6064 3 
357 5548 5547 1 
358 6064 294 3 
359 6064 6063 1 
360 800 799 1 
361 798 797 1 
362 313 314 1 
363 313 559 2 
364 314 798 3 
365 589 590 1 
366 69 70 1 
367 69 589 2 
368 1570 1554 3 
369 1570 1569 1 
370 1570 2542 3 
371 1532 1570 3 
372 1532 1531 1 
373 1532 2542 3 
374 828 1832 3 
375 828 827 1 
376 1561 1562 1 
377 2291 2353 2 
378 2353 2354 1 
379 3279 3280 1 
380 4312 3582 3 
381 4312 4311 1 
382 3305 3581 2 
383 3807 3808 1 
384 3574 4066 3 
385 3574 3573 1 
386 4074 3802 3 
387 4587 4588 1 
388 3575 3576 1 
389 3575 3815 2 
390 5071 5072 1 
391 4073 4074 1 
392 5049 5050 1 
393 5296 5295 1 
394 4814 4813 1 
395 5580 4814 3 
396 74 5816 3 
397 6083 6084 1 
398 5819 5820 1 
399 5819 6083 2 
400 5821 5822 1 
401 6053 6054 1 
402 5825 5826 1 
403 5825 6063 2 
404 5822 5838 3 
405 336 822 3 
406 822 821 1 
407 77 78 1 
408 825 826 1 
409 819 820 1 
410 820 856 3 
411 1074 828 3 
412 1074 1073 1 
413 1832 1074 3 
414 1832 1831 1 
415 1071 1072 1 
416 1073 1339 2 
417 1339 1340 1 
418 2082 2081 1 
419 2816 2082 3 
420 2581 2582 1 
421 3038 3037 1 
422 2824 3038 3 
423 2354 2582 3 
424 2354 3038 3 
425 2582 2824 3 
426 2823 2824 1 
427 2835 2836 1 
428 2559 2560 1 
429 2559 2835 2 
430 3051 3052 1 
431 3061 3062 1 
432 3793 3794 1 
433 3826 3825 1 
434 3823 3824 1 
435 4535 4536 1 
436 3572 4072 3 
437 3572 3571 1 
438 4322 3572 3 
439 4322 4321 1 
440 4072 4322 3 
441 4072 4071 1 
442 3802 3801 1 
443 3591 3592 1 
444 5051 5052 1 
445 5051 5573 2 
446 5325 5326 1 
447 5573 5574 1 
448 5081 5082 1 
449 5561 5562 1 
450 5327 5328 1 
451 91 5327 2 
452 5315 5316 1 
453 6079 6080 1 
454 5563 5564 1 
455 5563 5811 2 
456 832 586 3 
457 335 336 1 
458 586 585 1 
459 93 94 1 
460 93 565 2 
461 581 582 1 
462 565 566 1 
463 2077 2078 1 
464 847 848 1 
465 847 2077 2 
466 1077 1078 1 
467 1077 1367 2 
468 1367 1368 1 
469 2063 2064 1 
470 2081 2089 2 
471 3037 3095 2 
472 1599 1600 1 
473 1599 2831 2 
474 3561 3562 1 
475 3607 3608 1 
476 3607 3813 2 
477 3813 3814 1 
478 3302 3826 3 
479 2335 2336 1 
480 3360 3359 1 
481 4337 4338 1 
482 2584 3360 3 
483 3619 3620 1 
484 3091 3335 2 
485 4321 4351 2 
486 5085 5086 1 
487 5065 5066 1 
488 4836 4835 1 
489 5077 5078 1 
490 5098 4836 3 
491 4825 4826 1 
492 4596 4595 1 
493 3845 3846 1 
494 4339 4340 1 
495 92 91 1 
496 103 104 1 
497 6095 6096 1 
498 343 831 2 
499 831 832 1 
500 344 592 3 
501 344 343 1 
502 843 844 1 
503 1584 1583 1 
504 596 1092 3 
505 1092 1091 1 
506 1347 1348 1 
507 1351 1352 1 
508 1813 1814 1 
509 2845 2846 1 
510 2845 2863 2 
511 2831 2832 1 
512 1847 1848 1 
513 1847 2615 2 
514 2349 2585 2 
515 2585 2586 1 
516 3339 3340 1 
517 2087 2088 1 
518 2864 2894 3 
519 2864 2863 1 
520 2351 2352 1 
521 2351 2357 2 
522 3341 3342 1 
523 2101 2102 1 
524 2101 2893 2 
525 3093 3094 1 
526 3594 3593 1 
527 3863 3864 1 
528 3593 3863 2 
529 3833 3834 1 
530 3833 4571 2 
531 4335 4336 1 
532 4600 4596 3 
533 4599 4600 1 
534 4599 4875 2 
535 371 372 1 
536 5611 5612 1 
537 5856 6102 3 
538 6102 6101 1 
539 102 342 3 
540 102 101 1 
541 342 6086 3 
542 342 341 1 
543 6086 102 3 
544 6086 6085 1 
545 5841 5842 1 
546 591 875 2 
547 1350 858 3 
548 1350 1349 1 
549 876 1350 3 
550 876 875 1 
551 1133 1134 1 
552 858 876 3 
553 858 857 1 
554 1091 1103 2 
555 1103 1104 1 
556 621 622 1 
557 1853 1854 1 
558 1605 1606 1 
559 2616 2615 1 
560 1858 2616 3 
561 1861 1862 1 
562 2109 2110 1 
563 2364 2864 3 
564 2364 2363 1 
565 2364 2894 3 
566 2894 2342 3 
567 2894 2893 1 
568 2342 2864 3 
569 2342 2341 1 
570 2342 2364 3 
571 3337 3338 1 
572 3111 3112 1 
573 3124 3884 3 
574 3884 3883 1 
575 3366 3594 3 
576 4350 3088 3 
577 4350 4349 1 
578 3123 3124 1 
579 3088 2842 3 
580 3088 3087 1 
581 4083 4084 1 
582 3851 3852 1 
583 3871 3872 1 
584 3871 4611 2 
585 5354 5353 1 
586 4592 5354 3 
587 4873 5353 2 
588 4874 4586 3 
589 4874 4873 1 
590 4874 5134 3 
591 4846 4874 3 
592 4846 4845 1 
593 4586 4846 3 
594 4586 4585 1 
595 4586 5134 3 
596 5134 4846 3 
597 5134 5133 1 
598 5347 5348 1 
599 5601 5602 1 
600 5601 5861 2 
601 5882 5881 1 
602 325 326 1 
603 325 6101 2 
604 110 5882 3 
605 5881 6109 2 
606 6109 6110 1 
607 121 122 1 
608 6144 5616 3 
609 5616 5615 1 
610 123 124 1 
611 139 140 1 
612 653 654 1 
613 653 1147 2 
614 1356 1106 3 
615 1106 1105 1 
616 633 634 1 
617 1865 1866 1 
618 1875 1876 1 
619 1642 1641 1 
620 1835 2115 2 
621 2115 2116 1 
622 2361 2362 1 
623 1391 1392 1 
624 2605 2606 1 
625 2131 2132 1 
626 2131 2135 2 
627 2619 2620 1 
628 2619 2853 2 
629 3105 3106 1 
630 3371 3372 1 
631 3624 3623 1 
632 3625 3626 1 
633 3862 3624 3 
634 4369 4370 1 
635 4103 4115 2 
636 3841 3842 1 
637 5103 5104 1 
638 4594 4622 3 
639 4622 4621 1 
640 4371 4372 1 
641 5635 5636 1 
642 4629 4630 1 
643 4629 5635 2 
644 153 154 1 
645 5598 5858 3 
646 5858 5857 1 
647 114 113 1 
648 6110 114 3 
649 5597 5598 1 
650 615 616 1 
651 613 614 1 
652 1623 1624 1 
653 1624 1898 3 
654 1873 1874 1 
655 1373 1374 1 
656 1385 1386 1 
657 1385 1881 2 
658 2625 2626 1 
659 2625 2647 2 
660 2112 2111 1 
661 2626 2112 3 
662 2887 2888 1 
663 3179 3180 1 
664 3897 3898 1 
665 2877 2878 1 
666 2877 3897 2 
667 3135 3136 1 
668 3135 3909 2 
669 3898 2866 3 
670 2866 2865 1 
671 3143 3641 2 
672 4395 4396 1 
673 2865 3901 2 
674 4115 4116 1 
675 3613 4633 2 
676 3614 3613 1 
677 4116 3614 3 
678 4111 4112 1 
679 5356 5122 3 
680 5122 5121 1 
681 5916 5624 3 
682 5624 5623 1 
683 5377 5378 1 
684 5871 5872 1 
685 877 878 1 
686 6121 6122 1 
687 141 143 2 
688 142 141 1 
689 1380 142 3 
690 1143 1144 1 
691 1644 1643 1 
692 2130 1644 3 
693 1659 1660 1 
694 1937 1938 1 
695 1882 2174 3 
696 1882 1881 1 
697 1882 2374 3 
698 1882 2152 3 
699 2152 2374 3 
700 2152 2151 1 
701 2174 2152 3 
702 2174 2173 1 
703 2374 2174 3 
704 2374 2373 1 
705 1407 1408 1 
706 1407 2169 2 
707 2647 2648 1 
708 2648 2662 3 
709 3923 3924 1 
710 3389 3390 1 
711 3390 4412 3 
712 3915 3916 1 
713 3891 3892 1 
714 4643 4644 1 
715 4155 4156 1 
716 4155 4643 2 
717 5355 5356 1 
718 5383 5384 1 
719 5665 5666 1 
720 5625 5626 1 
721 5926 5642 3 
722 5883 5884 1 
723 132 902 3 
724 132 131 1 
725 902 384 3 
726 902 901 1 
727 384 132 3 
728 384 383 1 
729 6151 6152 1 
730 641 642 1 
731 383 1399 2 
732 1653 1654 1 
733 1907 1908 1 
734 1907 2373 2 
735 2662 2661 1 
736 3667 3668 1 
737 2907 2908 1 
738 2871 2872 1 
739 2871 2907 2 
740 2934 3174 3 
741 2934 2933 1 
742 2656 2934 3 
743 2656 2655 1 
744 3174 2656 3 
745 3174 3173 1 
746 3163 3173 2 
747 3164 3666 3 
748 3164 3163 1 
749 3164 3388 3 
750 3666 3906 3 
751 3666 3665 1 
752 3388 3906 3 
753 3388 3387 1 
754 3388 3666 3 
755 3681 3682 1 
756 3663 3664 1 
757 3663 3899 2 
758 3899 3900 1 
759 3906 3164 3 
760 3906 3905 1 
761 3907 3908 1 
762 3159 3907 2 
763 3916 3678 3 
764 3678 3677 1 
765 3378 4134 3 
766 4134 4133 1 
767 4909 4910 1 
768 4922 4196 3 
769 4922 4948 3 
770 4196 4195 1 
771 4877 4878 1 
772 4877 4931 2 
773 5151 5152 1 
774 4663 4664 1 
775 5642 5641 1 
776 6153 6154 1 
777 5411 6153 2 
778 401 402 1 
779 1151 1152 1 
780 422 421 1 
781 656 422 3 
782 185 186 1 
783 185 1161 2 
784 931 932 1 
785 1161 1162 1 
786 1163 1164 1 
787 1673 1674 1 
788 1165 1166 1 
789 1681 1682 1 
790 2414 2184 3 
791 2414 2413 1 
792 2412 1924 3 
793 1924 1923 1 
794 2184 1672 3 
795 2184 2183 1 
796 2935 2936 1 
797 2915 2916 1 
798 2665 2666 1 
799 2665 2915 2 
800 2902 2684 3 
801 2684 2683 1 
802 3674 3673 1 
803 3172 3674 3 
804 2663 2664 1 
805 2663 2683 2 
806 3177 3178 1 
807 2655 3151 2 
808 3201 3202 1 
809 3679 3680 1 
810 3631 3632 1 
811 3631 3679 2 
812 4173 4174 1 
813 3670 3914 3 
814 3670 3669 1 
815 3404 3670 3 
816 3404 3403 1 
817 4911 4912 1 
818 4415 4416 1 
819 4415 5163 2 
820 4947 4948 1 
821 4921 4922 1 
822 4921 4947 2 
823 4920 4418 3 
824 4920 4919 1 
825 4920 5428 3 
826 4920 5402 3 
827 4680 4866 3 
828 4680 4679 1 
829 5447 5448 1 
830 5185 5447 2 
831 5164 4680 3 
832 5164 5163 1 
833 5670 5669 1 
834 6156 112 3 
835 6156 6155 1 
836 5412 378 3 
837 5412 5411 1 
838 5412 6156 3 
839 112 378 3 
840 112 111 1 
841 112 5412 3 
842 378 6156 3 
843 378 377 1 
844 932 426 3 
845 426 425 1 
846 1453 1665 2 
847 1913 1914 1 
848 1665 1666 1 
849 1155 1156 1 
850 1155 1913 2 
851 1192 1191 1 
852 1412 1192 3 
853 1672 2414 3 
854 1672 1671 1 
855 1922 1894 3 
856 1894 1893 1 
857 2901 2902 1 
858 2691 2692 1 
859 3171 3172 1 
860 3401 3402 1 
861 3435 3436 1 
862 3411 3671 2 
863 4153 4154 1 
864 3913 4427 2 
865 4428 4168 3 
866 4428 4427 1 
867 4168 4674 3 
868 4168 4167 1 
869 4674 4428 3 
870 4674 4673 1 
871 4700 4699 1 
872 4912 4700 3 
873 4699 5173 2 
874 5174 5446 3 
875 5174 5173 1 
876 5446 5186 3 
877 5446 5445 1 
878 5186 5174 3 
879 5186 5185 1 
880 5413 5659 2 
881 5444 5660 3 
882 5444 5443 1 
883 5672 5670 3 
884 5671 5672 1 
885 5660 5956 3 
886 5660 5659 1 
887 5918 5917 1 
888 195 196 1 
889 673 951 2 
890 452 214 3 
891 955 956 1 
892 702 952 3 
893 702 701 1 
894 936 682 3 
895 936 935 1 
896 682 672 3 
897 682 681 1 
898 682 710 3 
899 460 702 3 
900 460 459 1 
901 460 692 3 
902 952 460 3 
903 952 951 1 
904 710 936 3 
905 710 709 1 
906 672 936 3 
907 672 671 1 
908 672 710 3 
909 1215 1216 1 
910 1181 1191 2 
911 1703 1704 1 
912 1704 1172 3 
913 1454 1453 1 
914 1666 1454 3 
915 1172 1171 1 
916 1411 1412 1 
917 1933 1934 1 
918 2185 2186 1 
919 2185 2193 2 
920 2687 2688 1 
921 2437 2438 1 
922 2431 2432 1 
923 2431 2437 2 
924 1699 1700 1 
925 2441 2442 1 
926 3204 3438 3 
927 3204 3203 1 
928 3414 3204 3 
929 3414 3413 1 
930 3438 3414 3 
931 3438 3437 1 
932 3702 3701 1 
933 3422 3702 3 
934 3927 3928 1 
935 3661 3927 2 
936 4687 4688 1 
937 4681 4682 1 
938 4681 4715 2 
939 4961 4962 1 
940 4423 4424 1 
941 4423 4961 2 
942 3685 3686 1 
943 4945 4946 1 
944 5675 5676 1 
945 5956 5444 3 
946 5956 5955 1 
947 6184 5918 3 
948 6217 6218 1 
949 423 5933 2 
950 943 944 1 
951 445 943 2 
952 451 452 1 
953 194 193 1 
954 196 194 3 
955 216 472 3 
956 472 471 1 
957 209 210 1 
958 209 729 2 
959 705 6191 2 
960 705 706 1 
961 221 222 1 
962 471 661 2 
963 1185 1186 1 
964 692 702 3 
965 692 691 1 
966 692 952 3 
967 700 1444 3 
968 699 700 1 
969 699 1215 2 
970 1444 1443 1 
971 701 1173 2 
972 1725 1726 1 
973 3221 3222 1 
974 2946 2945 1 
975 3187 3188 1 
976 3187 3427 2 
977 3701 3975 2 
978 3975 3976 1 
979 4672 4671 1 
980 4220 4672 3 
981 4449 4450 1 
982 4163 4164 1 
983 4435 4436 1 
984 4219 4693 2 
985 4219 4220 1 
986 4693 4694 1 
987 4472 4471 1 
988 5189 5190 1 
989 4684 4216 3 
990 4684 4683 1 
991 4216 4162 3 
992 4216 4215 1 
993 4162 4684 3 
994 4162 4161 1 
995 5201 5202 1 
996 4683 4945 2 
997 5457 5458 1 
998 5458 5224 3 
999 5224 5223 1 
1000 5415 5416 1 
1001 5415 5673 2 
1002 5191 5192 1 
1003 6174 5206 3 
1004 6174 6173 1 
1005 5967 6173 2 
1006 5932 5966 3 
1007 5932 5931 1 
1008 5932 5934 3 
1009 5966 204 3 
1010 5966 5965 1 
1011 204 5932 3 
1012 204 203 1 
1013 204 5934 3 
1014 5934 5966 3 
1015 5934 5933 1 
1016 6163 6164 1 
1017 706 5968 3 
1018 191 192 1 
1019 191 483 2 
1020 6195 6196 1 
1021 183 691 2 
1022 184 183 1 
1023 1230 184 3 
1024 1717 1718 1 
1025 1452 998 3 
1026 1943 1944 1 
1027 2461 2462 1 
1028 2211 2461 2 
1029 2456 2212 3 
1030 2208 2207 1 
1031 2208 3432 3 
1032 2196 2208 3 
1033 2455 2456 1 
1034 1967 2455 2 
1035 2213 2214 1 
1036 3443 3444 1 
1037 3456 3455 1 
1038 2701 2702 1 
1039 2701 3443 2 
1040 3222 3456 3 
1041 2713 2714 1 
1042 2445 2446 1 
1043 3983 3984 1 
1044 3979 3983 2 
1045 3994 4472 3 
1046 4471 4963 2 
1047 4963 4964 1 
1048 4707 4708 1 
1049 4215 4437 2 
1050 4437 4438 1 
1051 4479 4713 2 
1052 203 5207 2 
1053 6221 6222 1 
1054 5207 5208 1 
1055 5441 5442 1 
1056 480 464 3 
1057 496 484 3 
1058 484 483 1 
1059 464 463 1 
1060 7 8 1 
1061 7 497 2 
1062 217 1951 2 
1063 1951 1952 1 
1064 218 752 3 
1065 218 217 1 
1066 1221 1222 1 
1067 1211 1212 1 
1068 1211 1221 2 
1069 1973 1974 1 
1070 1498 1994 3 
1071 1498 2240 3 
1072 1994 2240 3 
1073 1718 2240 3 
1074 2240 2239 1 
1075 1481 2239 2 
1076 1978 1956 3 
1077 1978 1977 1 
1078 1482 1978 3 
1079 1482 1481 1 
1080 1956 1482 3 
1081 1956 1955 1 
1082 2743 2744 1 
1083 1999 2000 1 
1084 1999 2973 2 
1085 2973 2974 1 
1086 2719 3231 2 
1087 2720 2719 1 
1088 2734 2720 3 
1089 3192 3232 3 
1090 3192 3191 1 
1091 3964 3192 3 
1092 3964 3963 1 
1093 3232 3964 3 
1094 3232 3231 1 
1095 4975 4976 1 
1096 4987 4988 1 
1097 4970 4480 3 
1098 4970 4969 1 
1099 4725 4726 1 
1100 4480 4260 3 
1101 4480 4479 1 
1102 4260 4970 3 
1103 4260 4259 1 
1104 5755 5756 1 
1105 5995 5996 1 
1106 5724 5714 3 
1107 5714 5713 1 
1108 5973 5974 1 
1109 1004 750 3 
1110 1004 1003 1 
1111 734 1004 3 
1112 734 733 1 
1113 750 734 3 
1114 750 749 1 
1115 1488 1487 1 
1116 1476 1488 3 
1117 1484 1762 3 
1118 1762 1761 1 
1119 2483 2484 1 
1120 2249 2250 1 
1121 2975 2976 1 
1122 2993 3217 2 
1123 2994 3214 3 
1124 2994 2993 1 
1125 2994 3210 3 
1126 3214 2986 3 
1127 3214 3213 1 
1128 2986 2994 3 
1129 2986 2985 1 
1130 2231 2232 1 
1131 3210 2986 3 
1132 3210 3209 1 
1133 3210 3214 3 
1134 2733 2985 2 
1135 2733 2734 1 
1136 3225 3226 1 
1137 3225 3963 2 
1138 3465 3466 1 
1139 3266 3265 1 
1140 4977 4978 1 
1141 4259 4721 2 
1142 5507 5508 1 
1143 4484 4720 3 
1144 4484 4483 1 
1145 4484 4732 3 
1146 4990 5222 3 
1147 4990 4989 1 
1148 253 254 1 
1149 263 264 1 
1150 1239 1240 1 
1151 505 506 1 
1152 486 485 1 
1153 1242 486 3 
1154 1013 1014 1 
1155 1013 1241 2 
1156 1247 1475 2 
1157 1475 1476 1 
1158 1241 1242 1 
1159 2245 2246 1 
1160 1483 1484 1 
1161 1011 1012 1 
1162 1011 1483 2 
1163 1485 1486 1 
1164 2255 2256 1 
1165 3483 3484 1 
1166 3483 3741 2 
1167 3741 3742 1 
1168 2961 2962 1 
1169 3493 4021 2 
1170 3494 3493 1 
1171 3991 3992 1 
1172 3758 3494 3 
1173 4247 4248 1 
1174 4221 4222 1 
1175 4724 4723 1 
1176 4758 4724 3 
1177 4522 4280 3 
1178 5259 5260 1 
1179 5259 5737 2 
1180 5737 5738 1 
1181 4280 4279 1 
1182 5492 5266 3 
1183 5492 5491 1 
1184 5490 5492 3 
1185 5490 5489 1 
1186 5266 5490 3 
1187 5266 5265 1 
1188 5019 5265 2 
1189 5256 5255 1 
1190 5742 5256 3 
1191 5472 5734 3 
1192 5472 5471 1 
1193 5734 5748 3 
1194 5734 5733 1 
1195 5748 5472 3 
1196 5748 5747 1 
1197 6227 6228 1 
1198 6002 244 3 
1199 244 243 1 
1200 5455 6223 2 
1201 29 251 2 
1202 6041 6042 1 
1203 489 490 1 
1204 763 764 1 
1205 764 310 3 
1206 310 309 1 
1207 473 474 1 
1208 1240 6 3 
1209 757 758 1 
1210 753 754 1 
1211 1280 1008 3 
1212 1280 1279 1 
1213 1259 1260 1 
1214 1786 1280 3 
1215 1786 1785 1 
1216 1008 1786 3 
1217 1008 1007 1 
1218 1501 1502 1 
1219 1507 1508 1 
1220 1507 2225 2 
1221 2007 2008 1 
1222 2005 2006 1 
1223 2005 2007 2 
1224 1525 1526 1 
1225 1265 1266 1 
1226 1265 2273 2 
1227 1764 2226 3 
1228 1764 1763 1 
1229 1757 1758 1 
1230 2226 1272 3 
1231 2226 2225 1 
1232 1747 1748 1 
1233 1747 1757 2 
1234 2274 2266 3 
1235 2274 2273 1 
1236 2274 2294 3 
1237 2274 2770 3 
1238 1517 1518 1 
1239 1751 1752 1 
1240 1751 2769 2 
1241 2266 2770 3 
1242 2266 2265 1 
1243 2770 2294 3 
1244 2770 2769 1 
1245 1518 2492 3 
1246 2785 2786 1 
1247 2276 2018 3 
1248 2276 2275 1 
1249 2754 2276 3 
1250 2754 2753 1 
1251 2508 2276 3 
1252 2508 2507 1 
1253 2508 2754 3 
1254 2018 2508 3 
1255 2018 2017 1 
1256 2018 2754 3 
1257 2504 2740 3 
1258 2740 2739 1 
1259 2279 2509 2 
1260 3223 3224 1 
1261 3223 3239 2 
1262 2962 3256 3 
1263 1995 1996 1 
1264 2981 2982 1 
1265 2509 2510 1 
1266 2745 2746 1 
1267 2507 2755 2 
1268 2481 2482 1 
1269 3256 3255 1 
1270 2513 2514 1 
1271 3467 3468 1 
1272 3257 3258 1 
1273 3304 3550 3 
1274 3550 3549 1 
1275 3303 3304 1 
1276 3767 3768 1 
1277 4022 4021 1 
1278 4257 4258 1 
1279 3504 4022 3 
1280 3759 3767 2 
1281 3764 3778 3 
1282 3770 3769 1 
1283 4012 3770 3 
1284 4007 4008 1 
1285 3527 3528 1 
1286 3527 3777 2 
1287 4503 4504 1 
1288 3769 4503 2 
1289 4011 4012 1 
1290 3766 3744 3 
1291 3766 3765 1 
1292 3766 4290 3 
1293 4744 3766 3 
1294 4744 4743 1 
1295 4290 4744 3 
1296 4290 4289 1 
1297 3744 4744 3 
1298 3744 3743 1 
1299 3744 4290 3 
1300 3771 3772 1 
1301 3771 4723 2 
1302 4752 5790 3 
1303 4752 4751 1 
1304 4993 4994 1 
1305 5790 5504 3 
1306 5790 5789 1 
1307 4279 4505 2 
1308 5504 4752 3 
1309 5504 5503 1 
1310 5481 5482 1 
1311 4516 4780 3 
1312 4516 4515 1 
1313 5025 5026 1 
1314 5502 5501 1 
1315 5014 5502 3 
1316 5020 5276 3 
1317 5020 5019 1 
1318 5005 5006 1 
1319 5005 5279 2 
1320 5750 5749 1 
1321 5983 5984 1 
1322 5494 5750 3 
1323 5987 5988 1 
1324 6004 4756 3 
1325 6233 6234 1 
1326 27 28 1 
1327 5981 6007 2 
1328 5766 5765 1 
1329 5766 6242 3 
1330 9 10 1 
1331 520 30 3 
1332 520 519 1 
1333 6016 520 3 
1334 6016 6015 1 
1335 30 6016 3 
1336 30 29 1 
1337 6013 6014 1 
1338 5765 6013 2 
1339 25 26 1 
1340 502 1022 3 
1341 516 284 3 
1342 1021 1022 1 
1343 284 283 1 
1344 1030 782 3 
1345 1030 1029 1 
1346 782 1276 3 
1347 782 781 1 
1348 535 1021 2 
1349 760 1054 3 
1350 760 759 1 
1351 1308 760 3 
1352 1308 1307 1 
1353 1276 1030 3 
1354 1276 1275 1 
1355 1054 1308 3 
1356 1054 1053 1 
1357 1041 1042 1 
1358 1780 1034 3 
1359 1780 1779 1 
1360 1034 2020 3 
1361 1034 1033 1 
1362 2020 1780 3 
1363 2020 2019 1 
1364 1745 1746 1 
1365 2014 2013 1 
1366 1537 1538 1 
1367 1266 2014 3 
1368 2049 2050 1 
1369 2023 2293 2 
1370 1769 1770 1 
1371 2294 2266 3 
1372 2294 2293 1 
1373 1519 2275 2 
1374 1520 1519 1 
1375 2763 2764 1 
1376 3018 2760 3 
1377 2271 2272 1 
1378 2271 2763 2 
1379 2760 2759 1 
1380 3017 3018 1 
1381 2511 2512 1 
1382 2511 2767 2 
1383 2768 2792 3 
1384 2768 2767 1 
1385 3262 3788 3 
1386 3262 3261 1 
1387 2262 3262 3 
1388 2262 2261 1 
1389 2262 2518 3 
1390 2518 3262 3 
1391 2518 2517 1 
1392 2518 3788 3 
1393 3788 2262 3 
1394 3788 3787 1 
1395 3549 3779 2 
1396 3779 3780 1 
1397 4513 4514 1 
1398 3013 3014 1 
1399 3013 4513 2 
1400 4266 4272 3 
1401 4266 4265 1 
1402 4266 4270 3 
1403 4278 4266 3 
1404 4278 4277 1 
1405 4270 4272 3 
1406 4270 4269 1 
1407 4270 4278 3 
1408 4272 4278 3 
1409 4272 4271 1 
1410 4281 4787 2 
1411 4289 4497 2 
1412 4497 4498 1 
1413 4780 4262 3 
1414 4780 4779 1 
1415 4262 4516 3 
1416 4262 4261 1 
1417 5001 5263 2 
1418 5264 5263 1 
1419 4774 5022 3 
1420 4774 4773 1 
1421 5022 4520 3 
1422 5022 5021 1 
1423 4520 4774 3 
1424 4520 4519 1 
1425 5534 5264 3 
1426 4775 4776 1 
1427 4775 5011 2 
1428 5011 5012 1 
1429 5763 5764 1 
1430 5761 5762 1 
1431 6048 5262 3 
1432 5262 5261 1 
1433 5261 5987 2 
1434 6011 6012 1 
1435 5003 5515 2 
1436 5539 5540 1 
1437 5515 5516 1 
1438 5004 5003 1 
1439 22 512 3 
1440 22 274 3 
1441 22 6242 3 
1442 512 511 1 
1443 512 274 3 
1444 512 5766 3 
1445 5767 5768 1 
1446 529 530 1 
1447 532 531 1 
1448 37 38 1 
1449 37 6039 2 
1450 6039 6040 1 
1451 261 531 2 
1452 280 532 3 
1453 514 513 1 
1454 788 514 3 
1455 787 788 1 
1456 787 1029 2 
1457 286 285 1 
1458 521 1067 2 
1459 1036 286 3 
1460 1067 1068 1 
1461 290 289 1 
1462 794 290 3 
1463 1032 1038 3 
1464 1038 1037 1 
1465 1536 1268 3 
1466 1536 1535 1 
1467 1760 1536 3 
1468 1760 1759 1 
1469 1278 1268 3 
1470 1278 1277 1 
1471 1278 1760 3 
1472 1278 1536 3 
1473 1268 1760 3 
1474 1268 1267 1 
1475 1261 1557 2 
1476 761 762 1 
1477 761 1037 2 
1478 1777 1778 1 
1479 1771 1772 1 
1480 1267 1549 2 
1481 1772 1282 3 
1482 2289 2290 1 
1483 2283 2284 1 
1484 2540 2286 3 
1485 2286 2285 1 
1486 2314 1520 3 
1487 2759 3251 2 
1488 2318 2040 3 
1489 2318 2317 1 
1490 2040 1544 3 
1491 2040 2039 1 
1492 1544 2318 3 
1493 1544 1543 1 
1494 2281 2529 2 
1495 3020 2798 3 
1496 3020 3019 1 
1497 3020 3546 3 
1498 3020 3026 3 
1499 2798 3546 3 
1500 2798 2797 1 
1501 3546 3026 3 
1502 3546 3545 1 
1503 2521 2522 1 
1504 2521 3515 2 
1505 3515 3516 1 
1506 3496 3022 3 
1507 3261 3545 2 
1508 3290 2784 3 
1509 3022 3021 1 
1510 2791 3267 2 
1511 3577 3578 1 
1512 3269 3270 1 
1513 3270 4024 3 
1514 4046 3544 3 
1515 4046 4045 1 
1516 3521 3522 1 
1517 4024 4023 1 
1518 4285 4286 1 
1519 4017 4018 1 
1520 4017 4285 2 
1521 4771 4772 1 
1522 3797 3798 1 
1523 4518 4517 1 
1524 4772 4518 3 
1525 4031 4032 1 
1526 4037 4038 1 
1527 5023 5024 1 
1528 4763 5023 2 
1529 4556 4764 3 
1530 4556 4555 1 
1531 4532 4550 3 
1532 4532 4531 1 
1533 4532 4556 3 
1534 4764 4532 3 
1535 4764 4763 1 
1536 4550 4764 3 
1537 4550 4549 1 
1538 4550 4556 3 
1539 4498 4268 3 
1540 4268 4267 1 
1541 4295 4296 1 
1542 4791 4792 1 
1543 4261 4267 2 
1544 4519 5031 2 
1545 4781 4782 1 
1546 4781 5529 2 
1547 5015 5016 1 
1548 5015 5519 2 
1549 6047 6048 1 
1550 5523 5524 1 
1551 5762 5004 3 
1552 6031 6032 1 
1553 5771 5772 1 
1554 6024 5774 3 
1555 6024 6023 1 
1556 5774 5800 3 
1557 5774 5773 1 
1558 5800 6024 3 
1559 5800 5799 1 
1560 542 541 1 
1561 6030 542 3 
1562 279 280 1 
1563 6029 6030 1 
1564 773 774 1 
1565 79 80 1 
1566 31 32 1 
1567 31 773 2 
1568 255 256 1 
1569 1015 1016 1 
1570 19 20 1 
1571 19 39 2 
1572 39 40 1 
1573 554 546 3 
1574 554 553 1 
1575 792 554 3 
1576 792 791 1 
1577 546 792 3 
1578 546 545 1 
1579 1025 1026 1 
1580 547 1025 2 
1581 1016 550 3 
1582 550 549 1 
1583 47 48 1 
1584 47 517 2 
1585 793 794 1 
1586 517 518 1 
1587 557 789 2 
1588 789 790 1 
1589 577 578 1 
1590 577 1051 2 
1591 1051 1052 1 
1592 289 1759 2 
1593 319 320 1 
1594 534 533 1 
1595 1546 1558 3 
1596 1546 1545 1 
1597 1558 1556 3 
1598 1558 1557 1 
1599 1556 1546 3 
1600 1556 1555 1 
1601 1512 534 3 
1602 1511 1512 1 
1603 1511 1743 2 
1604 1743 1744 1 
1605 2025 2026 1 
1606 2025 2807 2 
1607 2807 2808 1 
1608 1543 1827 2 
1609 3252 2282 3 
1610 3252 3251 1 
1611 2282 1784 3 
1612 2282 2281 1 
1613 1784 3252 3 
1614 1784 1783 1 
1615 2765 2766 1 
1616 3289 3290 1 
1617 2781 3289 2 
1618 3285 3286 1 
1619 3285 3293 2 
1620 3293 3294 1 
1621 3578 2782 3 
1622 2782 2781 1 
1623 3560 4062 3 
1624 3294 3796 3 
1625 3294 4062 3 
1626 4062 4061 1 
1627 3796 4062 3 
1628 4040 3320 3 
1629 4035 4036 1 
1630 3811 3812 1 
1631 4033 4045 2 
1632 3783 3784 1 
1633 3320 3319 1 
1634 4052 3804 3 
1635 3804 3803 1 
1636 4039 4040 1 
1637 3567 3568 1 
1638 4034 4033 1 
1639 4044 4034 3 
1640 4531 4553 2 
1641 4809 4810 1 
1642 4287 4288 1 
1643 4085 4086 1 
1644 3805 3806 1 
1645 4553 4554 1 
1646 4528 5582 3 
1647 4528 4527 1 
1648 4528 5040 3 
1649 4528 5314 3 
1650 5033 5034 1 
1651 4296 4294 3 
1652 4294 4293 1 
1653 5283 5284 1 
1654 5254 5032 3 
1655 5254 5253 1 
1656 5039 5535 2 
1657 5040 5582 3 
1658 5040 5039 1 
1659 4558 5032 3 
1660 4558 4557 1 
1661 4558 5054 3 
1662 4558 5254 3 
1663 5032 5054 3 
1664 5032 5031 1 
1665 5054 5254 3 
1666 5054 5053 1 
1667 5277 5278 1 
1668 5277 5283 2 
1669 5545 5546 1 
1670 5313 5545 2 
1671 5314 5040 3 
1672 5314 5313 1 
1673 5582 5314 3 
1674 5582 5581 1 
1675 5029 5030 1 
1676 4759 4760 1 
1677 5549 5550 1 
1678 5776 5775 1 
1679 5286 5776 3 
1680 5775 5823 2 
1681 5823 5824 1 
1682 5570 5310 3 
1683 5570 5569 1 
1684 5300 5570 3 
1685 5300 5299 1 
1686 5310 5300 3 
1687 5310 5309 1 
1688 5543 5544 1 
1689 5531 5781 2 
1690 5781 5782 1 
1691 5777 5778 1 
1692 5803 5804 1 
1693 36 35 1 
1694 5782 36 3 
1695 55 67 2 
1696 67 68 1 
1697 6069 6070 1 
1698 6093 6094 1 
1699 65 807 2 
1700 311 312 1 
1701 312 808 3 
1702 808 807 1 
1703 795 796 1 
1704 556 302 3 
1705 556 555 1 
1706 288 556 3 
1707 288 287 1 
1708 302 288 3 
1709 302 301 1 
1710 805 806 1 
1711 805 1553 2 
1712 1815 1816 1 
1713 1815 1829 2 
1714 1555 2055 2 
1715 2055 2056 1 
1716 1286 780 3 
1717 1286 1285 1 
1718 1286 1296 3 
1719 1803 2541 2 
1720 1548 1754 3 
1721 1548 1547 1 
1722 2032 1548 3 
1723 2032 2031 1 
1724 1804 1286 3 
1725 1804 1803 1 
1726 1539 1540 1 
1727 1333 1334 1 
1728 1753 2027 2 
1729 2027 2028 1 
1730 2033 2034 1 
1731 1800 2292 3 
1732 1800 1799 1 
1733 1800 2022 3 
1734 2331 2332 1 
1735 1303 1304 1 
1736 2079 2331 2 
1737 2079 2080 1 
1738 2573 2574 1 
1739 1297 1298 1 
1740 1828 1827 1 
1741 1799 2069 2 
1742 2306 1790 3 
1743 2067 2587 2 
1744 2574 1828 3 
1745 2837 2838 1 
1746 2837 3059 2 
1747 3043 3044 1 
1748 3043 3327 2 
1749 2035 2036 1 
1750 3055 3056 1 
1751 2264 3036 3 