ITEM: TIMESTEP
91960
ITEM: NUMBER OF ENTRIES
8157
ITEM: BOX BOUNDS pp pp ff
0.0000000000000000e+00 7.2168784000000002e+01
0.0000000000000000e+00 7.2168784000000002e+01
0.0000000000000000e+00 1.2000000000000000e+01
ITEM: ENTRIES index c_1[1] c_1[2] c_1[3]
1 244 243 1 
2 24 474 3 
3 24 23 1 
4 24 6018 3 
5 24 6014 3 
6 6018 474 3 
7 6018 6017 1 
8 474 6014 3 
9 474 473 1 
10 6002 244 3 
11 6016 520 3 
12 6016 6015 1 
13 30 6016 3 
14 30 29 1 
15 30 5516 3 
16 6022 248 3 
17 6022 6021 1 
18 34 248 3 
19 34 33 1 
20 34 6022 3 
21 248 12 3 
22 248 247 1 
23 12 34 3 
24 12 11 1 
25 12 6022 3 
26 33 501 2 
27 6051 6052 1 
28 1020 536 3 
29 1020 1019 1 
30 1758 1020 3 
31 1758 1757 1 
32 2276 2018 3 
33 2276 2275 1 
34 2261 2771 2 
35 3788 2262 3 
36 3788 3787 1 
37 3262 3788 3 
38 3262 3261 1 
39 2992 2778 3 
40 2992 2991 1 
41 2992 3002 3 
42 2262 3262 3 
43 2262 2261 1 
44 2262 2518 3 
45 2518 3262 3 
46 2518 2517 1 
47 2518 3788 3 
48 3002 2778 3 
49 3002 3001 1 
50 3002 3006 3 
51 3006 2992 3 
52 3006 3005 1 
53 2778 3006 3 
54 2778 2777 1 
55 2991 3277 2 
56 3277 3278 1 
57 4018 3506 3 
58 4018 4017 1 
59 4018 4726 3 
60 4504 4018 3 
61 4504 4503 1 
62 4504 4726 3 
63 3506 4504 3 
64 3506 3505 1 
65 4726 3506 3 
66 4726 4725 1 
67 4237 4238 1 
68 4736 5244 3 
69 5244 5243 1 
70 6246 4488 3 
71 6246 6245 1 
72 207 963 2 
73 5516 6016 3 
74 5516 5515 1 
75 266 265 1 
76 5732 266 3 
77 6011 6021 2 
78 6001 6002 1 
79 6001 6009 2 
80 5765 6013 2 
81 1244 778 3 
82 1244 1243 1 
83 1042 1244 3 
84 1042 1041 1 
85 778 1042 3 
86 778 777 1 
87 545 553 2 
88 535 1021 2 
89 1021 1022 1 
90 536 1002 3 
91 536 535 1 
92 536 1758 3 
93 1002 1020 3 
94 1002 1001 1 
95 1002 1758 3 
96 2001 2002 1 
97 2001 2485 2 
98 2002 2486 3 
99 2002 2774 3 
100 2486 2485 1 
101 2486 2774 3 
102 2298 2526 3 
103 2298 2297 1 
104 2298 2774 3 
105 2526 2764 3 
106 2526 2525 1 
107 2764 2298 3 
108 2764 2763 1 
109 2510 2509 1 
110 2759 3251 2 
111 1519 2275 2 
112 2777 3787 2 
113 2252 2732 3 
114 2252 2251 1 
115 2252 2762 3 
116 2772 2530 3 
117 2772 2771 1 
118 2302 2512 3 
119 2251 2489 2 
120 2301 2302 1 
121 2301 2797 2 
122 3770 3769 1 
123 3803 3804 1 
124 3803 4051 2 
125 3014 3544 3 
126 3014 3013 1 
127 3014 4028 3 
128 3014 4046 3 
129 3769 4503 2 
130 3501 3539 2 
131 3539 3540 1 
132 4046 4028 3 
133 4046 4045 1 
134 3540 4524 3 
135 4041 4265 2 
136 4524 4523 1 
137 4047 4499 2 
138 4735 4736 1 
139 4493 4735 2 
140 5003 5515 2 
141 280 246 3 
142 280 279 1 
143 246 532 3 
144 246 245 1 
145 20 1330 3 
146 786 296 3 
147 786 785 1 
148 786 790 3 
149 518 786 3 
150 518 517 1 
151 518 790 3 
152 296 518 3 
153 296 295 1 
154 5803 5804 1 
155 790 296 3 
156 790 789 1 
157 1330 1329 1 
158 761 1037 2 
159 1268 1760 3 
160 1268 1267 1 
161 1536 1268 3 
162 1536 1535 1 
163 1278 1268 3 
164 1278 1277 1 
165 1278 1760 3 
166 1278 1536 3 
167 1760 1536 3 
168 1760 1759 1 
169 1281 1541 2 
170 1282 1772 3 
171 1282 1281 1 
172 1282 1522 3 
173 1773 2297 2 
174 2271 2763 2 
175 2313 2775 2 
176 2532 2772 3 
177 2532 2531 1 
178 2531 2731 2 
179 1784 3252 3 
180 1784 1783 1 
181 2282 1784 3 
182 2282 2281 1 
183 2528 3780 3 
184 3780 3779 1 
185 2530 2532 3 
186 2530 2529 1 
187 2818 2296 3 
188 2818 2817 1 
189 2522 2532 3 
190 2522 2772 3 
191 4005 4287 2 
192 4026 3746 3 
193 4026 4036 3 
194 3746 3745 1 
195 3746 4036 3 
196 3312 3311 1 
197 3312 3804 3 
198 4534 5036 3 
199 4534 4533 1 
200 3992 3502 3 
201 3502 3501 1 
202 3311 3547 2 
203 4500 4276 3 
204 4500 4499 1 
205 4048 4500 3 
206 4048 4047 1 
207 4276 4048 3 
208 4276 4275 1 
209 4766 5762 3 
210 4766 4765 1 
211 4765 5537 2 
212 27 6033 2 
213 537 5779 2 
214 292 291 1 
215 5804 292 3 
216 258 38 3 
217 38 37 1 
218 1792 2308 3 
219 1792 1791 1 
220 2308 1290 3 
221 2308 2307 1 
222 1542 1792 3 
223 1542 1541 1 
224 1542 2308 3 
225 1290 1792 3 
226 1290 1289 1 
227 1290 1542 3 
228 1289 2283 2 
229 1778 1292 3 
230 1778 1777 1 
231 2776 2044 3 
232 2776 2775 1 
233 2284 1778 3 
234 2284 2283 1 
235 1292 2284 3 
236 1292 1291 1 
237 2564 2776 3 
238 2564 2563 1 
239 2272 2271 1 
240 2546 2272 3 
241 2281 2529 2 
242 3991 3992 1 
243 4316 4790 3 
244 4801 4802 1 
245 3558 4066 3 
246 3558 3557 1 
247 3558 3574 3 
248 5284 5296 3 
249 5284 5283 1 
250 5284 5760 3 
251 5760 4804 3 
252 5760 5759 1 
253 4804 5284 3 
254 4804 4803 1 
255 5296 4804 3 
256 5296 5295 1 
257 5296 5760 3 
258 5538 6048 3 
259 5538 5537 1 
260 5544 5318 3 
261 5318 5317 1 
262 5988 5987 1 
263 538 6044 3 
264 538 537 1 
265 322 538 3 
266 322 321 1 
267 322 784 3 
268 6044 322 3 
269 6044 6043 1 
270 6049 6050 1 
271 70 798 3 
272 70 69 1 
273 70 72 3 
274 798 314 3 
275 798 797 1 
276 314 70 3 
277 314 313 1 
278 72 314 3 
279 72 71 1 
280 72 798 3 
281 1096 1095 1 
282 1539 1791 2 
283 1333 2307 2 
284 1796 2564 3 
285 1796 1795 1 
286 1796 2776 3 
287 1796 2044 3 
288 2044 2564 3 
289 2044 2043 1 
290 3291 3299 2 
291 3031 3309 2 
292 3607 3608 1 
293 3607 3813 2 
294 3332 4588 3 
295 3332 3331 1 
296 4588 3776 3 
297 4588 4587 1 
298 5830 5044 3 
299 5830 5829 1 
300 5044 5302 3 
301 5044 5043 1 
302 5814 5044 3 
303 5814 5813 1 
304 5814 5830 3 
305 353 5541 2 
306 5043 5317 2 
307 783 5777 2 
308 5825 6063 2 
309 83 307 2 
310 2316 1096 3 
311 2304 1314 3 
312 1540 1572 3 
313 1540 1539 1 
314 1314 1313 1 
315 1302 1540 3 
316 1302 1301 1 
317 1064 1572 3 
318 1064 1063 1 
319 1064 1540 3 
320 1064 1302 3 
321 1572 1302 3 
322 1572 1571 1 
323 2322 1576 3 
324 2322 2321 1 
325 1576 2084 3 
326 1576 1575 1 
327 2070 2069 1 
328 2070 3352 3 
329 1826 2070 3 
330 3292 3310 3 
331 3292 3291 1 
332 3310 3792 3 
333 3310 3309 1 
334 3792 3292 3 
335 3792 3791 1 
336 3563 3831 2 
337 2809 2810 1 
338 3564 3298 3 
339 3564 3563 1 
340 3067 3321 2 
341 3584 3583 1 
342 3596 3584 3 
343 3318 3066 3 
344 3318 3317 1 
345 3318 3344 3 
346 4076 3064 3 
347 4076 4075 1 
348 3064 2788 3 
349 3064 3063 1 
350 2788 4076 3 
351 2788 2787 1 
352 3322 3582 3 
353 3322 3321 1 
354 3323 3775 2 
355 3331 3567 2 
356 4312 3322 3 
357 4312 4311 1 
358 3062 3582 3 
359 3062 3061 1 
360 3062 4312 3 
361 3062 3322 3 
362 3582 4312 3 
363 3582 3581 1 
364 4291 4587 2 
365 3568 4058 3 
366 3568 3567 1 
367 3568 4300 3 
368 4292 3568 3 
369 4292 4291 1 
370 4292 4300 3 
371 4058 4292 3 
372 4058 4057 1 
373 4300 4058 3 
374 4300 4299 1 
375 5301 6087 2 
376 5559 6053 2 
377 74 6084 3 
378 74 73 1 
379 5302 5814 3 
380 5302 5301 1 
381 5302 5830 3 
382 76 562 3 
383 76 75 1 
384 300 76 3 
385 300 299 1 
386 300 324 3 
387 324 76 3 
388 324 323 1 
389 324 562 3 
390 562 300 3 
391 562 561 1 
392 355 356 1 
393 356 308 3 
394 337 355 2 
395 571 1559 2 
396 1560 1078 3 
397 1560 1559 1 
398 844 1560 3 
399 844 843 1 
400 1078 844 3 
401 1078 1077 1 
402 1313 1807 2 
403 1063 1817 2 
404 2058 2306 3 
405 2058 2057 1 
406 2058 3352 3 
407 2581 2582 1 
408 1790 2058 3 
409 1790 1789 1 
410 1790 2354 3 
411 2306 1790 3 
412 2306 2305 1 
413 2306 3352 3 
414 2582 2824 3 
415 2823 2824 1 
416 1825 1845 2 
417 1825 1826 1 
418 1845 1846 1 
419 2312 2311 1 
420 2072 2071 1 
421 2338 2072 3 
422 2810 2036 3 
423 3830 3324 3 
424 3830 3829 1 
425 3848 3830 3 
426 3848 3847 1 
427 3324 3848 3 
428 3324 3323 1 
429 3583 3599 2 
430 2036 2035 1 
431 4610 4572 3 
432 4610 4609 1 
433 4572 3850 3 
434 4572 4571 1 
435 3575 3815 2 
436 3822 4572 3 
437 3822 3821 1 
438 3822 4610 3 
439 3850 3822 3 
440 3850 3849 1 
441 3850 4610 3 
442 3835 4057 2 
443 4309 4543 2 
444 3833 4571 2 
445 3833 3834 1 
446 87 88 1 
447 5578 5328 3 
448 6088 6087 1 
449 5316 6088 3 
450 5328 5327 1 
451 4582 4581 1 
452 6084 5816 3 
453 6084 6083 1 
454 5840 6072 3 
455 5840 5839 1 
456 5340 5840 3 
457 5340 5339 1 
458 6072 5340 3 
459 6072 6071 1 
460 5084 5340 3 
461 5084 5083 1 
462 5084 6072 3 
463 5084 5840 3 
464 5560 5808 3 
465 5560 5559 1 
466 5560 5794 3 
467 5794 5568 3 
468 5794 5793 1 
469 5794 5808 3 
470 5808 5568 3 
471 5808 5807 1 
472 5568 5560 3 
473 5568 5567 1 
474 5807 5839 2 
475 6027 6028 1 
476 6027 6079 2 
477 6081 6082 1 
478 95 96 1 
479 95 6081 2 
480 98 5620 3 
481 98 97 1 
482 5620 6106 3 
483 5620 5619 1 
484 6106 98 3 
485 6106 6105 1 
486 1148 1147 1 
487 576 346 3 
488 576 575 1 
489 810 576 3 
490 810 809 1 
491 81 82 1 
492 81 563 2 
493 840 839 1 
494 564 563 1 
495 564 840 3 
496 82 564 3 
497 82 840 3 
498 1814 596 3 
499 1814 1813 1 
500 596 1092 3 
501 596 595 1 
502 1102 596 3 
503 1102 1101 1 
504 1102 1814 3 
505 1092 1814 3 
506 1092 1091 1 
507 1092 1102 3 
508 1069 1327 2 
509 1341 1342 1 
510 1341 1831 2 
511 305 597 2 
512 2319 2320 1 
513 2367 2368 1 
514 2359 2367 2 
515 2045 2046 1 
516 2045 3043 2 
517 3044 2828 3 
518 3044 3043 1 
519 2360 2610 3 
520 2360 2359 1 
521 2610 2340 3 
522 2610 2609 1 
523 2340 2360 3 
524 2340 2339 1 
525 1846 2580 3 
526 2580 2579 1 
527 2337 2338 1 
528 2337 2827 2 
529 2805 2806 1 
530 2805 3603 2 
531 3847 3829 2 
532 2834 3354 3 
533 2834 2833 1 
534 4123 4857 2 
535 4117 4341 2 
536 4321 4351 2 
537 4544 4798 3 
538 4544 4543 1 
539 4798 3836 3 
540 4798 4797 1 
541 3836 4544 3 
542 3836 3835 1 
543 4824 4886 3 
544 4886 4885 1 
545 3834 4114 3 
546 4114 4113 1 
547 4340 4604 3 
548 4340 4339 1 
549 4604 5346 3 
550 4604 4603 1 
551 5346 4340 3 
552 5346 5345 1 
553 4823 4824 1 
554 115 857 2 
555 344 350 3 
556 344 343 1 
557 592 344 3 
558 592 591 1 
559 332 592 3 
560 332 331 1 
561 332 350 3 
562 332 344 3 
563 874 873 1 
564 376 874 3 
565 1101 1637 2 
566 1637 1638 1 
567 839 1337 2 
568 1108 862 3 
569 1108 1107 1 
570 1354 1108 3 
571 1354 1353 1 
572 1354 1834 3 
573 1834 1108 3 
574 1834 1833 1 
575 862 1354 3 
576 862 861 1 
577 862 1834 3 
578 1595 2099 2 
579 817 2319 2 
580 1335 1336 1 
581 1335 1809 2 
582 2320 1600 3 
583 2320 2368 3 
584 2064 2368 3 
585 2064 2120 3 
586 2120 818 3 
587 2120 2119 1 
588 2074 1810 3 
589 2074 2073 1 
590 2090 2074 3 
591 2090 2089 1 
592 1810 2090 3 
593 1810 1809 1 
594 1812 1810 3 
595 1812 1811 1 
596 1812 2074 3 
597 1812 2090 3 
598 818 1098 3 
599 818 817 1 
600 1098 2120 3 
601 1098 1097 1 
602 1097 2565 2 
603 1600 1599 1 
604 1600 2064 3 
605 1600 2368 3 
606 2601 2609 2 
607 1811 2623 2 
608 3604 3044 3 
609 3604 3603 1 
610 2110 2340 3 
611 2110 2109 1 
612 2110 2610 3 
613 2110 2360 3 
614 2828 3604 3 
615 2828 2827 1 
616 2109 2607 2 
617 2096 2366 3 
618 2366 2365 1 
619 2352 3616 3 
620 2352 2351 1 
621 2351 2357 2 
622 2357 2358 1 
623 2845 2863 2 
624 3091 3335 2 
625 3605 3819 2 
626 2584 3360 3 
627 2584 2583 1 
628 3360 3106 3 
629 3360 3359 1 
630 3106 2584 3 
631 3106 3105 1 
632 3106 3112 3 
633 3112 2584 3 
634 3112 3111 1 
635 3112 3360 3 
636 4346 4342 3 
637 4346 4345 1 
638 4342 4122 3 
639 4342 4822 3 
640 4342 4341 1 
641 4122 4822 3 
642 4122 4346 3 
643 4122 4121 1 
644 4822 4346 3 
645 4822 4821 1 
646 3593 3863 2 
647 4121 4607 2 
648 3111 3591 2 
649 3594 3366 3 
650 3594 3593 1 
651 4124 3594 3 
652 4124 4123 1 
653 3334 3333 1 
654 3334 4124 3 
655 3334 3594 3 
656 4100 4856 3 
657 4100 4099 1 
658 4856 4332 3 
659 4856 4855 1 
660 4332 4100 3 
661 4332 4331 1 
662 5079 5345 2 
663 4375 4376 1 
664 4375 5375 2 
665 5136 5368 3 
666 5136 5135 1 
667 5124 5136 3 
668 5124 5123 1 
669 5368 5124 3 
670 5368 5367 1 
671 5619 5847 2 
672 616 654 3 
673 616 615 1 
674 654 864 3 
675 654 653 1 
676 370 654 3 
677 370 369 1 
678 370 616 3 
679 370 864 3 
680 864 616 3 
681 864 863 1 
682 343 831 2 
683 116 115 1 
684 1338 1114 3 
685 1338 1337 1 
686 1634 1338 3 
687 1634 1633 1 
688 1114 812 3 
689 1114 1113 1 
690 1114 1634 3 
691 812 1338 3 
692 812 811 1 
693 812 1634 3 
694 1394 1870 3 
695 1394 1393 1 
696 1870 1852 3 
697 1870 1869 1 
698 1852 1394 3 
699 1852 1851 1 
700 1630 1836 3 
701 1630 1629 1 
702 1630 2602 3 
703 1606 1630 3 
704 1606 1605 1 
705 1836 1606 3 
706 1836 1835 1 
707 1836 2602 3 
708 2566 2565 1 
709 2602 1606 3 
710 2602 2601 1 
711 1857 3099 2 
712 3099 3100 1 
713 1849 1850 1 
714 2624 2344 3 
715 2624 2623 1 
716 2850 2624 3 
717 2850 2849 1 
718 1589 1849 2 
719 2825 3339 2 
720 1835 2115 2 
721 2608 2624 3 
722 2608 2607 1 
723 2608 2850 3 
724 2344 2850 3 
725 2344 2343 1 
726 2344 2608 3 
727 2816 2082 3 
728 2854 2853 1 
729 1868 2116 3 
730 3100 2854 3 
731 2082 2081 1 
732 2365 2595 2 
733 2363 2861 2 
734 2595 2596 1 
735 3127 3385 2 
736 2101 2893 2 
737 3379 3895 2 
738 3864 3092 3 
739 3864 3863 1 
740 3092 3606 3 
741 3092 3091 1 
742 3606 3864 3 
743 3606 3605 1 
744 3375 3883 2 
745 4620 3870 3 
746 4620 4619 1 
747 3861 3862 1 
748 3861 4345 2 
749 3625 3626 1 
750 3625 3851 2 
751 4383 4889 2 
752 5586 5118 3 
753 5586 5585 1 
754 5872 372 3 
755 5872 5871 1 
756 114 113 1 
757 5853 5854 1 
758 603 851 2 
759 113 341 2 
760 6102 5848 3 
761 6102 6101 1 
762 5856 6102 3 
763 5856 5855 1 
764 5848 5856 3 
765 5848 5847 1 
766 615 1431 2 
767 1079 1080 1 
768 1079 1355 2 
769 165 6143 2 
770 1356 1106 3 
771 1356 1355 1 
772 1432 1356 3 
773 1432 1431 1 
774 1106 1432 3 
775 1106 1105 1 
776 889 1371 2 
777 1601 1602 1 
778 1850 2566 3 
779 1617 2855 2 
780 1605 1869 2 
781 2372 1132 3 
782 2372 2371 1 
783 3134 2372 3 
784 3134 3133 1 
785 1858 1857 1 
786 1858 3340 3 
787 1858 2616 3 
788 2616 2856 3 
789 2616 2615 1 
790 2856 1858 3 
791 2856 2855 1 
792 2856 3340 3 
793 3340 2616 3 
794 3340 3339 1 
795 1132 3134 3 
796 1132 1131 1 
797 1862 1590 3 
798 1862 1861 1 
799 1590 2376 3 
800 1590 1589 1 
801 2376 1862 3 
802 2376 2375 1 
803 2343 2369 2 
804 1847 2615 2 
805 2611 3083 2 
806 2611 2612 1 
807 1848 1847 1 
808 2596 1848 3 
809 2869 3117 2 
810 2873 3643 2 
811 2612 3180 3 
812 3644 3844 3 
813 3644 3643 1 
814 3380 3644 3 
815 3380 3379 1 
816 3844 3380 3 
817 3844 3843 1 
818 3397 3843 2 
819 3852 3898 3 
820 3852 3851 1 
821 3898 2866 3 
822 3898 3897 1 
823 2866 3852 3 
824 2866 2865 1 
825 3869 4385 2 
826 2335 3123 2 
827 4870 4370 3 
828 4870 4869 1 
829 3626 4370 3 
830 3626 4870 3 
831 3626 4104 3 
832 4104 4870 3 
833 4104 4103 1 
834 4851 4881 2 
835 4370 4104 3 
836 4370 4369 1 
837 5122 4120 3 
838 5122 5121 1 
839 5356 5122 3 
840 5356 5355 1 
841 4384 4383 1 
842 4362 4384 3 
843 6116 5626 3 
844 5626 5625 1 
845 342 102 3 
846 342 341 1 
847 342 878 3 
848 5597 5598 1 
849 5597 5637 2 
850 5858 5857 1 
851 5598 5858 3 
852 1105 1135 2 
853 414 1376 3 
854 1358 1874 3 
855 1358 1357 1 
856 1358 1918 3 
857 1358 1900 3 
858 1874 1900 3 
859 1874 1873 1 
860 1376 1375 1 
861 1381 1382 1 
862 1381 1897 2 
863 895 1873 2 
864 1137 1138 1 
865 1137 1375 2 
866 1651 1652 1 
867 1651 1917 2 
868 1373 1374 1 
869 1373 1891 2 
870 2903 3133 2 
871 2903 2904 1 
872 1853 2155 2 
873 2390 2389 1 
874 2904 2390 3 
875 2604 2384 3 
876 2604 2603 1 
877 2604 3104 3 
878 3418 2676 3 
879 3418 3417 1 
880 3418 3668 3 
881 3668 2676 3 
882 3668 3667 1 
883 3371 3372 1 
884 2877 3897 2 
885 4923 4924 1 
886 2878 2877 1 
887 4397 5355 2 
888 5121 5143 2 
889 5362 5878 3 
890 5362 5361 1 
891 5878 4156 3 
892 5878 5877 1 
893 4156 5362 3 
894 4156 4155 1 
895 877 5875 2 
896 6148 416 3 
897 6148 6147 1 
898 642 144 3 
899 642 641 1 
900 642 6148 3 
901 185 1161 2 
902 1682 1162 3 
903 1682 1681 1 
904 1682 1898 3 
905 2174 2152 3 
906 2174 2173 1 
907 2152 2374 3 
908 2152 2151 1 
909 1898 1624 3 
910 1898 1897 1 
911 1918 1874 3 
912 1918 1917 1 
913 1900 1918 3 
914 1900 1899 1 
915 2374 2174 3 
916 2374 2373 1 
917 1882 2174 3 
918 1882 1881 1 
919 1882 2374 3 
920 1882 2152 3 
921 2888 2872 3 
922 2888 2887 1 
923 2402 2888 3 
924 2402 2401 1 
925 2872 2402 3 
926 2872 2871 1 
927 3162 3370 3 
928 3372 3910 3 
929 3370 3369 1 
930 3910 3909 1 
931 3136 2878 3 
932 4924 3622 3 
933 3622 3621 1 
934 5393 5394 1 
935 5144 5143 1 
936 5154 5144 3 
937 5127 5361 2 
938 5431 5653 2 
939 385 6149 2 
940 144 6148 3 
941 144 143 1 
942 6188 6150 3 
943 6188 6187 1 
944 660 6150 3 
945 660 659 1 
946 660 5172 3 
947 660 6188 3 
948 6150 5172 3 
949 6150 6149 1 
950 5172 6188 3 
951 5172 5171 1 
952 409 6187 2 
953 416 144 3 
954 416 415 1 
955 416 642 3 
956 1149 1150 1 
957 410 186 3 
958 410 409 1 
959 186 1692 3 
960 186 185 1 
961 186 392 3 
962 1692 410 3 
963 1692 1691 1 
964 392 410 3 
965 392 391 1 
966 392 1692 3 
967 1151 6159 2 
968 953 1623 2 
969 2655 3151 2 
970 2934 3174 3 
971 2934 2933 1 
972 3680 2934 3 
973 3680 3679 1 
974 2656 2934 3 
975 2656 2655 1 
976 2656 3680 3 
977 3174 2656 3 
978 3174 3173 1 
979 3174 3680 3 
980 3161 4141 2 
981 3161 3162 1 
982 3886 2912 3 
983 2912 2911 1 
984 5402 5428 3 
985 5402 5401 1 
986 4920 4418 3 
987 4920 4919 1 
988 4920 5428 3 
989 4920 5402 3 
990 5428 4418 3 
991 5428 5427 1 
992 4418 5402 3 
993 4418 4417 1 
994 4893 5153 2 
995 4657 4658 1 
996 4657 5167 2 
997 5153 5154 1 
998 4137 4403 2 
999 4399 5617 2 
1000 4138 4137 1 
1001 4400 4888 3 
1002 4400 4399 1 
1003 5664 4138 3 
1004 4888 4878 3 
1005 4888 4887 1 
1006 4878 4400 3 
1007 4878 4877 1 
1008 5392 6168 3 
1009 5392 5391 1 
1010 6168 122 3 
1011 6168 6167 1 
1012 122 5392 3 
1013 122 121 1 
1014 426 425 1 
1015 932 426 3 
1016 1643 1673 2 
1017 2130 1644 3 
1018 2130 2129 1 
1019 2673 3165 2 
1020 3918 3650 3 
1021 2933 3649 2 
1022 2192 3186 3 
1023 2192 2191 1 
1024 2192 2674 3 
1025 3163 3173 2 
1026 3193 4171 2 
1027 4172 3396 3 
1028 4172 4171 1 
1029 3912 4172 3 
1030 3912 3911 1 
1031 3396 3912 3 
1032 3396 3395 1 
1033 3164 3666 3 
1034 3164 3163 1 
1035 3164 3388 3 
1036 3906 3164 3 
1037 3906 3905 1 
1038 3666 3906 3 
1039 3666 3665 1 
1040 3388 3906 3 
1041 3388 3387 1 
1042 3388 3666 3 
1043 4652 5168 3 
1044 4652 4651 1 
1045 4894 4652 3 
1046 4894 4893 1 
1047 4894 5618 3 
1048 5618 4652 3 
1049 5618 5617 1 
1050 5168 4894 3 
1051 5168 5167 1 
1052 5168 5618 3 
1053 5434 5194 3 
1054 6138 5406 3 
1055 6183 6184 1 
1056 6167 6189 2 
1057 689 893 2 
1058 669 945 2 
1059 670 1178 3 
1060 670 669 1 
1061 405 913 2 
1062 425 447 2 
1063 448 652 3 
1064 448 447 1 
1065 952 460 3 
1066 952 951 1 
1067 460 702 3 
1068 460 459 1 
1069 460 692 3 
1070 702 952 3 
1071 702 701 1 
1072 692 702 3 
1073 692 691 1 
1074 692 952 3 
1075 459 935 2 
1076 2432 1706 3 
1077 2432 2431 1 
1078 1688 2432 3 
1079 1688 1687 1 
1080 1687 1949 2 
1081 1706 1688 3 
1082 1706 1705 1 
1083 2950 2194 3 
1084 2950 2949 1 
1085 2950 3166 3 
1086 3166 2444 3 
1087 3166 3165 1 
1088 2444 2950 3 
1089 2444 2443 1 
1090 2194 2444 3 
1091 2194 2193 1 
1092 2194 3166 3 
1093 2197 2691 2 
1094 3939 4163 2 
1095 4429 4695 2 
1096 4167 4457 2 
1097 5454 6222 3 
1098 5454 5453 1 
1099 5425 5426 1 
1100 5425 5955 2 
1101 5183 5453 2 
1102 5184 5183 1 
1103 5426 5184 3 
1104 894 670 3 
1105 894 893 1 
1106 1178 894 3 
1107 1178 1177 1 
1108 427 428 1 
1109 451 452 1 
1110 451 5993 2 
1111 5993 5994 1 
1112 436 1180 3 
1113 436 435 1 
1114 936 682 3 
1115 936 935 1 
1116 710 936 3 
1117 710 709 1 
1118 672 936 3 
1119 672 671 1 
1120 672 710 3 
1121 682 672 3 
1122 682 681 1 
1123 682 710 3 
1124 1197 2425 2 
1125 1197 1198 1 
1126 2425 2426 1 
1127 671 921 2 
1128 2431 2437 2 
1129 3401 3435 2 
1130 3401 3402 1 
1131 2900 2899 1 
1132 3402 2900 3 
1133 2899 3673 2 
1134 3460 3459 1 
1135 3976 3460 3 
1136 4672 4671 1 
1137 4219 4693 2 
1138 4219 4220 1 
1139 3706 3724 3 
1140 3706 3705 1 
1141 3738 3737 1 
1142 3929 4667 2 
1143 3930 4166 3 
1144 3930 3929 1 
1145 4166 3430 3 
1146 4166 4165 1 
1147 4444 4458 3 
1148 4458 4457 1 
1149 3430 3930 3 
1150 3430 3429 1 
1151 4199 4933 2 
1152 5224 5223 1 
1153 5458 5224 3 
1154 5195 5196 1 
1155 5195 5219 2 
1156 4934 4933 1 
1157 6222 5210 3 
1158 6222 6221 1 
1159 5210 5454 3 
1160 5210 5209 1 
1161 195 196 1 
1162 195 1383 2 
1163 194 193 1 
1164 196 194 3 
1165 462 198 3 
1166 450 6198 3 
1167 450 449 1 
1168 5960 450 3 
1169 5960 5959 1 
1170 6192 432 3 
1171 6192 6191 1 
1172 454 6192 3 
1173 454 453 1 
1174 432 454 3 
1175 432 431 1 
1176 6198 5960 3 
1177 6198 6197 1 
1178 5994 730 3 
1179 433 697 2 
1180 697 698 1 
1181 434 680 3 
1182 434 433 1 
1183 434 1186 3 
1184 666 434 3 
1185 666 665 1 
1186 6197 6219 2 
1187 1186 666 3 
1188 1186 1185 1 
1189 679 6175 2 
1190 1180 458 3 
1191 1180 1179 1 
1192 680 666 3 
1193 680 679 1 
1194 680 1186 3 
1195 458 436 3 
1196 458 457 1 
1197 457 6199 2 
1198 709 1461 2 
1199 1462 1496 3 
1200 1462 1461 1 
1201 1713 1983 2 
1202 1217 1941 2 
1203 1940 1939 1 
1204 1453 1665 2 
1205 2426 1940 3 
1206 1666 1454 3 
1207 1454 1453 1 
1208 1665 1666 1 
1209 1942 1964 3 
1210 1942 1941 1 
1211 1942 2206 3 
1212 1939 2205 2 
1213 1964 1720 3 
1214 1964 1963 1 
1215 1964 2206 3 
1216 1720 1719 1 
1217 1720 2206 3 
1218 3946 3450 3 
1219 3946 3945 1 
1220 3450 3958 3 
1221 3450 3449 1 
1222 3958 3946 3 
1223 3958 3957 1 
1224 2948 3958 3 
1225 2948 2947 1 
1226 2948 3450 3 
1227 2948 3946 3 
1228 3967 3977 2 
1229 4220 4672 3 
1230 3449 3941 2 
1231 3459 3957 2 
1232 3975 3976 1 
1233 3701 3975 2 
1234 4211 4465 2 
1235 4209 5451 2 
1236 4210 4698 3 
1237 4210 4209 1 
1238 4697 5457 2 
1239 4448 4210 3 
1240 4448 4447 1 
1241 4448 5442 3 
1242 5442 4210 3 
1243 5442 5441 1 
1244 4698 4448 3 
1245 4698 4697 1 
1246 4698 5442 3 
1247 4705 5461 2 
1248 5457 5458 1 
1249 4434 4184 3 
1250 4434 4433 1 
1251 4958 4434 3 
1252 4958 4957 1 
1253 4958 5476 3 
1254 4469 4470 1 
1255 4469 4703 2 
1256 5476 4434 3 
1257 5476 5475 1 
1258 4184 4958 3 
1259 4184 4183 1 
1260 4184 5476 3 
1261 4447 5217 2 
1262 5220 4460 3 
1263 5220 5219 1 
1264 5230 5470 3 
1265 5230 5229 1 
1266 5230 6240 3 
1267 5470 5696 3 
1268 5470 5469 1 
1269 6240 5470 3 
1270 6240 6239 1 
1271 5696 5230 3 
1272 5696 5695 1 
1273 5696 6240 3 
1274 423 5933 2 
1275 5229 5931 2 
1276 698 924 3 
1277 698 920 3 
1278 716 920 3 
1279 716 6220 3 
1280 6220 6219 1 
1281 228 6220 3 
1282 200 698 3 
1283 200 716 3 
1284 200 924 3 
1285 924 920 3 
1286 920 919 1 
1287 453 923 2 
1288 221 222 1 
1289 221 431 2 
1290 950 238 3 
1291 238 237 1 
1292 199 200 1 
1293 199 1443 2 
1294 222 178 3 
1295 178 177 1 
1296 237 1493 2 
1297 1422 1496 3 
1298 1422 1421 1 
1299 1422 1480 3 
1300 1422 1462 3 
1301 216 6200 3 
1302 216 215 1 
1303 216 1714 3 
1304 6200 472 3 
1305 6200 6199 1 
1306 1714 6200 3 
1307 1714 1713 1 
1308 472 216 3 
1309 472 471 1 
1310 472 1714 3 
1311 1496 1480 3 
1312 1496 1495 1 
1313 1480 1462 3 
1314 1480 1479 1 
1315 1225 1421 2 
1316 2205 2206 1 
1317 1203 1989 2 
1318 2923 2947 2 
1319 3226 2704 3 
1320 3226 3225 1 
1321 3226 3424 3 
1322 2946 2704 3 
1323 2946 2945 1 
1324 2946 3226 3 
1325 2704 3424 3 
1326 2704 2703 1 
1327 2445 2446 1 
1328 2445 3207 2 
1329 3424 2946 3 
1330 3424 3423 1 
1331 3926 3968 3 
1332 3968 3967 1 
1333 3702 3701 1 
1334 3422 3702 3 
1335 3761 5441 2 
1336 3465 3749 2 
1337 3933 3959 2 
1338 3466 3762 3 
1339 3466 3465 1 
1340 4474 4206 3 
1341 4474 4473 1 
1342 4474 4988 3 
1343 4464 3466 3 
1344 4464 4463 1 
1345 4206 4988 3 
1346 4206 4205 1 
1347 3762 4464 3 
1348 3762 3761 1 
1349 4988 4438 3 
1350 4988 4987 1 
1351 5980 5690 3 
1352 5980 5979 1 
1353 6202 5990 3 
1354 6202 6201 1 
1355 5990 5736 3 
1356 5990 5989 1 
1357 5736 6202 3 
1358 5736 5735 1 
1359 466 5464 3 
1360 466 465 1 
1361 923 924 1 
1362 4960 4959 1 
1363 5182 4960 3 
1364 480 464 3 
1365 464 463 1 
1366 7 497 2 
1367 253 6235 2 
1368 463 971 2 
1369 227 228 1 
1370 227 993 2 
1371 971 972 1 
1372 498 732 3 
1373 498 497 1 
1374 1457 1479 2 
1375 1491 1735 2 
1376 1486 2236 3 
1377 1486 1485 1 
1378 1486 2730 3 
1379 1486 1736 3 
1380 1736 2730 3 
1381 1736 1735 1 
1382 2236 1736 3 
1383 2236 2235 1 
1384 2730 2236 3 
1385 2730 2729 1 
1386 1253 1981 2 
1387 1478 1477 1 
1388 1477 1991 2 
1389 1991 1992 1 
1390 2460 2700 3 
1391 2460 2459 1 
1392 2700 3472 3 
1393 2700 2699 1 
1394 3208 2190 3 
1395 3208 3984 3 
1396 3208 3207 1 
1397 2450 3208 3 
1398 2450 2449 1 
1399 2190 3984 3 
1400 2190 2450 3 
1401 2190 2189 1 
1402 3984 2450 3 
1403 3984 3983 1 
1404 3980 3979 1 
1405 3473 3474 1 
1406 3473 4193 2 
1407 4194 4198 3 
1408 4194 4193 1 
1409 4194 4208 3 
1410 4208 4198 3 
1411 4208 4207 1 
1412 4198 3960 3 
1413 4198 4197 1 
1414 3960 4194 3 
1415 3960 3959 1 
1416 3960 4208 3 
1417 4232 4016 3 
1418 4232 4231 1 
1419 5028 4232 3 
1420 5028 5027 1 
1421 4016 5028 3 
1422 4016 4015 1 
1423 4982 4992 3 
1424 4982 4981 1 
1425 4714 4982 3 
1426 4714 4713 1 
1427 4992 4714 3 
1428 4992 4991 1 
1429 4733 4734 1 
1430 4733 5025 2 
1431 4981 5203 2 
1432 5248 5247 1 
1433 231 5973 2 
1434 5246 5248 3 
1435 5181 5182 1 
1436 5181 6249 2 
1437 241 5709 2 
1438 5709 5710 1 
1439 504 6238 3 
1440 504 503 1 
1441 6250 504 3 
1442 6250 6249 1 
1443 438 6238 3 
1444 438 437 1 
1445 438 504 3 
1446 438 6250 3 
1447 6238 6250 3 
1448 6238 6237 1 
1449 6230 498 3 
1450 6230 6229 1 
1451 987 988 1 
1452 987 6229 2 
1453 972 1004 3 
1454 734 1004 3 
1455 734 733 1 
1456 734 972 3 
1457 750 734 3 
1458 750 749 1 
1459 1004 750 3 
1460 1004 1003 1 
1461 260 259 1 
1462 260 476 3 
1463 988 260 3 
1464 732 6230 3 
1465 732 731 1 
1466 731 749 2 
1467 494 6230 3 
1468 494 493 1 
1469 494 732 3 
1470 494 498 3 
1471 1458 1470 3 
1472 1458 1457 1 
1473 1216 1458 3 
1474 1216 1215 1 
1475 958 1490 3 
1476 958 957 1 
1477 958 1202 3 
1478 211 957 2 
1479 1474 1478 3 
1480 2461 2462 1 
1481 1473 1474 1 
1482 1465 1466 1 
1483 1465 1473 2 
1484 1945 2227 2 
1485 1237 2471 2 
1486 1238 1237 1 
1487 2966 2710 3 
1488 2966 2965 1 
1489 3472 2460 3 
1490 3472 3471 1 
1491 2232 2460 3 
1492 2232 2231 1 
1493 2232 2700 3 
1494 2232 3472 3 
1495 3474 3980 3 
1496 3468 2516 3 
1497 3468 3467 1 
1498 2516 4004 3 
1499 2516 2515 1 
1500 4004 3468 3 
1501 4004 4003 1 
1502 3477 3721 2 
1503 3015 3525 2 
1504 3503 3504 1 
1505 3503 3965 2 
1506 3773 4747 2 
1507 4231 4751 2 
1508 5493 5494 1 
1509 4722 4990 3 
1510 4722 4721 1 
1511 4990 5222 3 
1512 4990 4989 1 
1513 5222 4722 3 
1514 5222 5221 1 
1515 4284 5222 3 
1516 4284 4283 1 
1517 4284 4722 3 
1518 4284 4990 3 
1519 4734 5252 3 
1520 5250 5790 3 
1521 5250 5494 3 
1522 5487 5991 2 
1523 236 242 3 
1524 236 5974 3 
1525 236 235 1 
1526 5974 226 3 
1527 5974 5973 1 
1528 226 236 3 
1529 226 225 1 
1530 242 5974 3 
1531 242 226 3 
1532 242 241 1 
1533 243 475 2 
1534 475 476 1 
1535 476 972 3 
1536 476 750 3 
1537 247 5753 2 
1538 5 733 2 
1539 11 6051 2 
1540 1245 1246 1 
1541 983 1245 2 
1542 984 1258 3 
1543 984 983 1 
1544 984 1248 3 
1545 1223 1257 2 
1546 1224 1730 3 
1547 1224 1223 1 
1548 736 1224 3 
1549 736 735 1 
1550 1730 736 3 
1551 1730 1729 1 
1552 2972 2242 3 
1553 2972 2971 1 
1554 2260 2259 1 
1555 2752 2260 3 
1556 2224 2972 3 
1557 2224 2223 1 
1558 2242 2224 3 
1559 2242 2241 1 
1560 2223 3447 2 
1561 3985 4257 2 
1562 4257 4258 1 
1563 3467 3735 2 
1564 3735 3736 1 
1565 3970 2748 3 
1566 3970 3969 1 
1567 2210 3970 3 
1568 2210 2209 1 
1569 2748 2210 3 
1570 2748 2747 1 
1571 3812 3016 3 
1572 3812 3811 1 
1573 3798 3812 3 
1574 3798 3797 1 
1575 3016 3798 3 
1576 3016 3015 1 
1577 5764 4782 3 
1578 5764 5763 1 
1579 4782 5006 3 
1580 4782 4781 1 
1581 5763 6245 2 
1582 5488 5487 1 
1583 964 5488 3 
1584 963 964 1 
1585 225 6025 2 
1586 6014 6018 3 
1587 6014 6013 1 
1588 520 30 3 
1589 520 519 1 
1590 520 5516 3 
1591 489 519 2 
1592 249 5517 2 
1593 6008 6224 3 
1594 6008 6007 1 
1595 6224 250 3 
1596 6224 6223 1 
1597 473 525 2 
1598 501 502 1 
1599 46 5730 3 
1600 1012 782 3 
1601 1012 1011 1 
1602 1012 1030 3 
1603 1012 1276 3 
1604 1030 782 3 
1605 1030 1029 1 
1606 525 526 1 
1607 1276 1030 3 
1608 1276 1275 1 
1609 782 1276 3 
1610 782 781 1 
1611 310 309 1 
1612 5730 5729 1 
1613 6052 748 3 
1614 711 721 2 
1615 764 310 3 
1616 269 270 1 
1617 781 1523 2 
1618 748 747 1 
1619 515 516 1 
1620 515 1263 2 
1621 284 283 1 
1622 284 502 3 
1623 233 269 2 
1624 48 516 3 
1625 48 284 3 
1626 48 764 3 
1627 485 1239 2 
1628 1239 1240 1 
1629 1769 1770 1 
1630 974 714 3 
1631 974 973 1 
1632 974 1264 3 
1633 974 1756 3 
1634 1264 1756 3 
1635 1264 1263 1 
1636 1019 1779 2 
1637 741 742 1 
1638 741 973 2 
1639 1228 1000 3 
1640 1228 1227 1 
1641 509 1243 2 
1642 1000 1222 3 
1643 1000 999 1 
1644 1222 1228 3 
1645 1222 1221 1 
1646 742 1236 3 
1647 1236 1235 1 
1648 1747 1757 2 
1649 2024 2023 1 
1650 1744 2024 3 
1651 1279 2019 2 
1652 1748 1766 3 
1653 1748 1747 1 
1654 1766 1724 3 
1655 1766 1765 1 
1656 1766 2012 3 
1657 1724 1748 3 
1658 1724 1723 1 
1659 1724 2012 3 
1660 2012 1748 3 
1661 2012 2011 1 
1662 1280 1786 3 
1663 1280 1279 1 
1664 1723 2253 2 
1665 2253 2254 1 
1666 2791 3267 2 
1667 2279 2509 2 
1668 1752 1751 1 
1669 1518 2492 3 
1670 1518 2254 3 
1671 1518 2786 3 
1672 2492 2506 3 
1673 2280 2279 1 
1674 2280 2492 3 
1675 2280 2786 3 
1676 2742 1752 3 
1677 2785 2786 1 
1678 2254 2280 3 
1679 2254 2786 3 
1680 2506 2505 1 
1681 2754 2276 3 
1682 2754 2753 1 
1683 2508 2276 3 
1684 2508 2507 1 
1685 2508 2754 3 
1686 2018 2508 3 
1687 2018 2017 1 
1688 2018 2754 3 
1689 3018 2760 3 
1690 3017 3018 1 
1691 2017 2513 2 
1692 2481 2482 1 
1693 2481 3017 2 
1694 3005 3229 2 
1695 2998 2514 3 
1696 2998 2997 1 
1697 3484 2998 3 
1698 3484 3483 1 
1699 1503 2761 2 
1700 2514 3484 3 
1701 2514 2513 1 
1702 3510 3010 3 
1703 3510 3509 1 
1704 2536 2535 1 
1705 2496 2536 3 
1706 2490 2248 3 
1707 2490 2489 1 
1708 2490 3448 3 
1709 3756 3004 3 
1710 3756 3755 1 
1711 3030 3756 3 
1712 3030 3029 1 
1713 3030 3278 3 
1714 3278 4258 3 
1715 3278 3522 3 
1716 2248 3012 3 
1717 2248 2247 1 
1718 2248 3448 3 
1719 3004 3030 3 
1720 3004 3003 1 
1721 3261 3545 2 
1722 3012 2490 3 
1723 3012 3011 1 
1724 4258 3522 3 
1725 3522 3521 1 
1726 3269 3270 1 
1727 2783 3269 2 
1728 3517 3518 1 
1729 3517 3989 2 
1730 3270 4024 3 
1731 3026 2798 3 
1732 3026 3025 1 
1733 4024 4023 1 
1734 3546 3026 3 
1735 3546 3545 1 
1736 3768 3764 3 
1737 3768 3767 1 
1738 3778 3768 3 
1739 3778 3777 1 
1740 3764 3778 3 
1741 3764 3763 1 
1742 4017 4285 2 
1743 4285 4286 1 
1744 3505 3765 2 
1745 3543 3811 2 
1746 4266 4272 3 
1747 4266 4265 1 
1748 4266 4270 3 
1749 4278 4266 3 
1750 4278 4277 1 
1751 4245 4529 2 
1752 4272 4278 3 
1753 4272 4271 1 
1754 4270 4272 3 
1755 4270 4269 1 