ITEM: TIMESTEP
30360
ITEM: NUMBER OF ENTRIES
6140
ITEM: BOX BOUNDS pp pp ff
0.0000000000000000e+00 7.2168784000000002e+01
0.0000000000000000e+00 7.2168784000000002e+01
0.0000000000000000e+00 1.2000000000000000e+01
ITEM: ENTRIES index c_1[1] c_1[2] c_1[3]
1 6017 6018 1 
2 29 251 2 
3 251 252 1 
4 487 488 1 
5 5765 6013 2 
6 6018 6014 3 
7 753 754 1 
8 233 269 2 
9 269 270 1 
10 1765 1766 1 
11 1525 1526 1 
12 1525 1765 2 
13 2495 2496 1 
14 2762 1504 3 
15 2762 2761 1 
16 1504 2252 3 
17 1504 1503 1 
18 2732 1504 3 
19 2732 2731 1 
20 2732 2762 3 
21 2252 2732 3 
22 2252 2251 1 
23 2252 2762 3 
24 2536 2535 1 
25 1751 1752 1 
26 1751 2769 2 
27 2496 2536 3 
28 2961 2962 1 
29 2962 3256 3 
30 3010 3986 3 
31 3010 3009 1 
32 3510 3010 3 
33 3510 3509 1 
34 3986 3510 3 
35 3986 3985 1 
36 3503 3504 1 
37 3526 3525 1 
38 3512 3526 3 
39 3763 3764 1 
40 4022 4021 1 
41 4012 3770 3 
42 6246 5238 3 
43 4275 5525 2 
44 5238 5237 1 
45 4724 4723 1 
46 5525 5526 1 
47 5481 5482 1 
48 5249 5250 1 
49 5249 5481 2 
50 5981 6007 2 
51 248 12 3 
52 248 247 1 
53 12 34 3 
54 12 11 1 
55 12 6022 3 
56 34 248 3 
57 34 33 1 
58 34 6022 3 
59 6022 248 3 
60 6022 6021 1 
61 6241 6242 1 
62 257 6241 2 
63 257 258 1 
64 6014 6013 1 
65 525 526 1 
66 271 272 1 
67 768 1022 3 
68 270 522 3 
69 270 768 3 
70 270 526 3 
71 778 777 1 
72 1042 778 3 
73 1002 536 3 
74 1002 1001 1 
75 536 1020 3 
76 536 535 1 
77 1020 1002 3 
78 1020 1019 1 
79 1040 1274 3 
80 1040 1039 1 
81 1040 1534 3 
82 2266 2770 3 
83 2266 2265 1 
84 2274 2266 3 
85 2274 2273 1 
86 2274 2294 3 
87 2274 2770 3 
88 2770 2294 3 
89 2770 2769 1 
90 2294 2266 3 
91 2294 2293 1 
92 2740 2739 1 
93 2531 2731 2 
94 3303 3304 1 
95 3496 3022 3 
96 3022 3021 1 
97 3264 3538 3 
98 3264 3263 1 
99 3264 3272 3 
100 3538 3034 3 
101 3538 3537 1 
102 3290 2784 3 
103 3015 3525 2 
104 3539 3540 1 
105 6245 6246 1 
106 4048 4500 3 
107 4048 4047 1 
108 3771 3772 1 
109 3771 4723 2 
110 4276 4048 3 
111 4276 4275 1 
112 4500 4276 3 
113 4500 4499 1 
114 529 530 1 
115 767 768 1 
116 767 1043 2 
117 296 295 1 
118 518 296 3 
119 759 777 2 
120 1520 1519 1 
121 2314 1520 3 
122 2313 2775 2 
123 2313 2314 1 
124 3263 3535 2 
125 2524 3534 3 
126 2524 2523 1 
127 2524 3790 3 
128 3790 3534 3 
129 3790 3789 1 
130 3289 3290 1 
131 2781 3289 2 
132 3534 3316 3 
133 3534 3533 1 
134 3316 2524 3 
135 3316 3315 1 
136 3316 3790 3 
137 3548 3284 3 
138 3548 3547 1 
139 3284 3048 3 
140 3284 3283 1 
141 4524 4523 1 
142 3540 4524 3 
143 4037 4038 1 
144 4302 5292 3 
145 3805 3806 1 
146 4519 5031 2 
147 4295 4296 1 
148 5290 4754 3 
149 5290 5289 1 
150 4754 4746 3 
151 4754 4753 1 
152 4746 5002 3 
153 4746 4745 1 
154 4746 5290 3 
155 5002 4754 3 
156 5002 5001 1 
157 5002 5290 3 
158 6030 542 3 
159 6030 6029 1 
160 542 5540 3 
161 542 541 1 
162 5540 6030 3 
163 5540 5539 1 
164 255 256 1 
165 35 6035 2 
166 322 6044 3 
167 322 321 1 
168 545 553 2 
169 517 518 1 
170 1044 1048 3 
171 1044 1043 1 
172 1048 540 3 
173 1048 1047 1 
174 540 1044 3 
175 540 539 1 
176 47 48 1 
177 47 517 2 
178 815 816 1 
179 295 815 2 
180 1778 1292 3 
181 1281 1541 2 
182 1771 1772 1 
183 1292 1291 1 
184 1282 1281 1 
185 1772 1282 3 
186 1781 1782 1 
187 1796 2564 3 
188 1796 1795 1 
189 1796 2776 3 
190 1796 2044 3 
191 2044 2564 3 
192 2044 2043 1 
193 2776 2044 3 
194 2776 2775 1 
195 3310 3292 3 
196 3069 3070 1 
197 3795 3796 1 
198 3048 3548 3 
199 3048 3047 1 
200 4034 4033 1 
201 4044 4034 3 
202 5292 5291 1 
203 4316 4790 3 
204 4301 4302 1 
205 4790 4789 1 
206 4305 4306 1 
207 4528 5582 3 
208 4528 4527 1 
209 4528 5040 3 
210 4528 5314 3 
211 5813 5814 1 
212 524 6036 3 
213 6036 6035 1 
214 538 322 3 
215 538 537 1 
216 6044 538 3 
217 6044 6043 1 
218 798 797 1 
219 314 798 3 
220 335 336 1 
221 1290 1792 3 
222 1290 1289 1 
223 1290 1542 3 
224 2308 1290 3 
225 2308 2307 1 
226 1542 1792 3 
227 1542 1541 1 
228 1542 2308 3 
229 1792 2308 3 
230 1792 1791 1 
231 1302 1301 1 
232 1572 1302 3 
233 1561 1562 1 
234 1571 1572 1 
235 1571 1781 2 
236 1821 1822 1 
237 2053 2054 1 
238 2564 2776 3 
239 2564 2563 1 
240 1795 2053 2 
241 2295 2296 1 
242 2022 1824 3 
243 2022 2021 1 
244 2022 2292 3 
245 2292 1824 3 
246 2292 2291 1 
247 1797 2021 2 
248 1800 2292 3 
249 1800 1799 1 
250 1800 2022 3 
251 3043 3044 1 
252 2801 2802 1 
253 3292 3291 1 
254 2035 2036 1 
255 3031 3309 2 
256 3309 3310 1 
257 3776 3775 1 
258 3332 3776 3 
259 4059 4060 1 
260 4059 4065 2 
261 3331 3332 1 
262 3331 3567 2 
263 3567 3568 1 
264 4315 4316 1 
265 4063 4064 1 
266 4053 4305 2 
267 4767 4768 1 
268 4767 4783 2 
269 4085 4086 1 
270 4054 4806 3 
271 4054 4053 1 
272 4567 4568 1 
273 4567 5331 2 
274 5048 5792 3 
275 5048 5047 1 
276 5566 5048 3 
277 5566 5565 1 
278 5792 5566 3 
279 5792 5791 1 
280 5296 5295 1 
281 4784 5792 3 
282 4784 4783 1 
283 4784 5566 3 
284 4784 5048 3 
285 4804 5296 3 
286 4803 4804 1 
287 4803 5797 2 
288 5043 5044 1 
289 5043 5317 2 
290 5317 5318 1 
291 6062 64 3 
292 64 63 1 
293 6061 6062 1 
294 523 524 1 
295 69 70 1 
296 69 589 2 
297 313 314 1 
298 313 559 2 
299 819 820 1 
300 822 821 1 
301 71 72 1 
302 336 822 3 
303 1071 1072 1 
304 1560 1559 1 
305 1078 1560 3 
306 1532 1570 3 
307 1532 1531 1 
308 1532 2542 3 
309 1570 1554 3 
310 1570 1569 1 
311 1570 2542 3 
312 1073 1339 2 
313 1339 1340 1 
314 1333 2307 2 
315 1793 1794 1 
316 2054 1334 3 
317 1334 1333 1 
318 1562 1798 3 
319 1798 1797 1 
320 2306 1790 3 
321 1799 2069 2 
322 1790 1789 1 
323 3814 3564 3 
324 3814 3813 1 
325 3068 3564 3 
326 3068 3067 1 
327 3068 3814 3 
328 3298 3068 3 
329 3298 3297 1 
330 3298 3814 3 
331 3564 3298 3 
332 3564 3563 1 
333 3558 4066 3 
334 3558 3557 1 
335 3558 3574 3 
336 3072 3552 3 
337 3072 3071 1 
338 3574 4066 3 
339 3574 3573 1 
340 3306 3558 3 
341 3306 3305 1 
342 3306 3574 3 
343 4066 3306 3 
344 4066 4065 1 
345 4545 4546 1 
346 4074 3802 3 
347 4073 4074 1 
348 3802 3801 1 
349 3816 4072 3 
350 3816 3815 1 
351 3816 4322 3 
352 3572 4072 3 
353 3572 3571 1 
354 3572 3816 3 
355 4587 4588 1 
356 4319 4325 2 
357 4535 4536 1 
358 6049 6050 1 
359 5551 6049 2 
360 5552 5542 3 
361 5552 5551 1 
362 6083 6084 1 
363 5819 6083 2 
364 5825 5826 1 
365 5825 6063 2 
366 5542 5820 3 
367 5542 5541 1 
368 5820 5552 3 
369 5820 5819 1 
370 1077 1367 2 
371 1077 1078 1 
372 828 1832 3 
373 828 827 1 
374 1074 828 3 
375 1074 1073 1 
376 1832 1074 3 
377 1832 1831 1 
378 1367 1368 1 
379 2045 2046 1 
380 2557 2558 1 
381 2323 2324 1 
382 2323 2557 2 
383 3619 3620 1 
384 4312 3322 3 
385 4312 4311 1 
386 3323 3324 1 
387 3297 3619 2 
388 3062 3582 3 
389 3062 3061 1 
390 3062 4312 3 
391 3062 3322 3 
392 3322 3582 3 
393 3322 3321 1 
394 3582 4312 3 
395 3582 3581 1 
396 3552 3586 3 
397 3552 3551 1 
398 3305 3581 2 
399 3595 3596 1 
400 3595 4107 2 
401 3586 3072 3 
402 3586 3585 1 
403 3561 3562 1 
404 3607 3608 1 
405 3607 3813 2 
406 4072 4322 3 
407 4072 4071 1 
408 4322 3572 3 
409 4322 4321 1 
410 4321 4351 2 
411 4297 4298 1 
412 5346 4604 3 
413 5573 5574 1 
414 5561 5562 1 
415 5051 5052 1 
416 5051 5573 2 
417 5801 5802 1 
418 5315 5316 1 
419 5563 5564 1 
420 5563 5811 2 
421 5821 5822 1 
422 315 316 1 
423 315 6057 2 
424 6057 6058 1 
425 812 1114 3 
426 812 811 1 
427 833 834 1 
428 843 844 1 
429 1341 1342 1 
430 1341 1831 2 
431 1368 1596 3 
432 1596 1595 1 
433 2077 2078 1 
434 2816 2082 3 
435 2815 2816 1 
436 1600 1599 1 
437 2320 1600 3 
438 2082 2081 1 
439 2831 2832 1 
440 2832 2560 3 
441 2560 2559 1 
442 3601 3602 1 
443 4108 4107 1 
444 3620 4108 3 
445 3111 3112 1 
446 3091 3335 2 
447 3092 3091 1 
448 3864 3092 3 
449 3591 3592 1 
450 4577 4578 1 
451 4604 4603 1 
452 5345 5346 1 
453 5079 5345 2 
454 5079 5080 1 
455 5065 5066 1 
456 4835 5065 2 
457 5078 4836 3 
458 5078 5077 1 
459 5098 5078 3 
460 5098 5097 1 
461 5089 5090 1 
462 6103 6104 1 
463 5083 5084 1 
464 5083 5089 2 
465 832 586 3 
466 586 585 1 
467 591 875 2 
468 1114 1338 3 
469 1114 1113 1 
470 1401 1402 1 
471 1091 1103 2 
472 1583 1603 2 
473 1603 1604 1 
474 1595 2099 2 
475 2099 2100 1 
476 2063 2064 1 
477 2845 2846 1 
478 2845 2863 2 
479 3341 3342 1 
480 2611 2612 1 
481 2611 3083 2 
482 3337 3338 1 
483 4337 4338 1 
484 3123 3124 1 
485 3851 3852 1 
486 3833 3834 1 
487 3833 4571 2 
488 4591 4592 1 
489 4876 4875 1 
490 5080 4876 3 
491 5347 5348 1 
492 5862 5874 3 
493 5862 5861 1 
494 106 5862 3 
495 106 105 1 
496 5637 5638 1 
497 6086 102 3 
498 6086 6085 1 
499 831 832 1 
500 343 831 2 
501 5864 5863 1 
502 362 5864 3 
503 876 1350 3 
504 876 875 1 
505 1350 858 3 
506 1350 1349 1 
507 858 876 3 
508 858 857 1 
509 1356 1106 3 
510 1106 1105 1 
511 633 634 1 
512 1841 1842 1 
513 1841 2103 2 
514 2128 2136 3 
515 2128 2127 1 
516 1869 1870 1 
517 2092 2128 3 
518 2092 2091 1 
519 2136 2092 3 
520 2136 2135 1 
521 1618 2128 3 
522 1618 1617 1 
523 1618 2092 3 
524 1618 2136 3 
525 2131 2132 1 
526 2131 2135 2 
527 3339 3340 1 
528 2826 2862 3 
529 2826 2825 1 
530 2825 3339 2 
531 2619 2620 1 
532 2619 2853 2 
533 3084 2826 3 
534 3084 3083 1 
535 2335 2336 1 
536 3124 3884 3 
537 3884 3883 1 
538 3624 3623 1 
539 3862 3624 3 
540 3873 3874 1 
541 3873 4363 2 
542 3366 3594 3 
543 3594 3593 1 
544 4105 4106 1 
545 4105 4609 2 
546 4569 4575 2 
547 4346 4345 1 
548 5354 5353 1 
549 4592 5354 3 
550 4873 5353 2 
551 5115 5116 1 
552 4846 4874 3 
553 4846 4845 1 
554 4874 4586 3 
555 4874 4873 1 
556 4874 5134 3 
557 5134 4846 3 
558 5134 5133 1 
559 4586 4846 3 
560 4586 4585 1 
561 4586 5134 3 
562 371 372 1 
563 5881 6109 2 
564 6109 6110 1 
565 102 342 3 
566 102 101 1 
567 361 362 1 
568 654 864 3 
569 654 653 1 
570 121 122 1 
571 121 123 2 
572 5597 5598 1 
573 864 616 3 
574 864 863 1 
575 653 1147 2 
576 613 614 1 
577 1133 1134 1 
578 634 1614 3 
579 1614 1613 1 
580 1118 1117 1 
581 880 1118 3 
582 1835 2115 2 
583 2115 2116 1 
584 1642 1641 1 
585 2361 2362 1 
586 2853 2854 1 
587 3099 3100 1 
588 3375 3883 2 
589 3372 3910 3 
590 3371 3372 1 
591 4152 4151 1 
592 3842 4152 3 
593 4621 4627 2 
594 4593 4594 1 
595 6110 114 3 
596 5598 5858 3 
597 5858 5857 1 
598 627 628 1 
599 5883 5884 1 
600 142 141 1 
601 628 1148 3 
602 1148 1147 1 
603 1380 142 3 
604 1136 1135 1 
605 414 1376 3 
606 1376 1375 1 
607 621 622 1 
608 413 1429 2 
609 413 414 1 
610 1137 1138 1 
611 1137 1375 2 
612 1373 1374 1 
613 2112 2626 3 
614 2112 2111 1 
615 2626 1386 3 
616 2626 2625 1 
617 2621 2622 1 
618 1641 2395 2 
619 1386 2112 3 
620 1386 1385 1 
621 3144 3376 3 
622 3144 3143 1 
623 2878 2877 1 
624 3136 2878 3 
625 4146 3144 3 
626 4146 4145 1 
627 3143 3641 2 
628 3924 3642 3 
629 3924 3923 1 
630 3642 3902 3 
631 3642 3641 1 
632 4628 4646 3 
633 4628 4627 1 
634 4646 4640 3 
635 4646 4645 1 
636 4640 4628 3 
637 4640 4639 1 
638 4884 4644 3 
639 4884 4883 1 
640 4644 5374 3 
641 4644 4643 1 
642 5915 5916 1 
643 5871 5872 1 
644 6162 158 3 
645 151 152 1 
646 151 641 2 
647 623 6147 2 
648 383 1399 2 
649 1143 1144 1 
650 1653 1654 1 
651 1937 1938 1 
652 2374 2174 3 
653 2374 2373 1 
654 2152 2374 3 
655 2152 2151 1 
656 2130 1644 3 
657 2130 2129 1 
658 1882 2174 3 
659 1882 1881 1 
660 1882 2374 3 
661 1882 2152 3 
662 1644 940 3 
663 1644 1643 1 
664 940 2130 3 
665 940 939 1 
666 2174 2152 3 
667 2174 2173 1 
668 1391 1392 1 
669 1895 2401 2 
670 2371 2372 1 
671 2401 2402 1 
672 2887 2888 1 
673 2662 2661 1 
674 2648 2662 3 
675 4395 4396 1 
676 3389 3390 1 
677 3892 4660 3 
678 4660 4659 1 
679 4116 3614 3 
680 3891 3892 1 
681 4406 4932 3 
682 4932 4931 1 
683 5131 5132 1 
684 4883 5151 2 
685 4155 4156 1 
686 4155 4643 2 
687 6153 6154 1 
688 5411 6153 2 
689 6121 6122 1 
690 6151 6152 1 
691 641 642 1 
692 902 384 3 
693 902 901 1 
694 6148 416 3 
695 6148 6147 1 
696 132 902 3 
697 132 131 1 
698 416 144 3 
699 416 415 1 
700 384 132 3 
701 384 383 1 
702 144 6148 3 
703 144 143 1 
704 415 421 2 
705 1163 1164 1 
706 1415 1416 1 
707 2402 2872 3 
708 2872 2871 1 
709 2661 2667 2 
710 2871 2907 2 
711 2907 2908 1 
712 2656 2934 3 
713 2656 2655 1 
714 3174 2656 3 
715 3174 3173 1 
716 2934 3174 3 
717 2934 2933 1 
718 2657 2658 1 
719 2889 2890 1 
720 2889 3681 2 
721 4412 4411 1 
722 3390 4412 3 
723 5121 5143 2 
724 4877 4931 2 
725 4626 4948 3 
726 4196 4195 1 
727 5144 5143 1 
728 4922 4196 3 
729 4922 4948 3 
730 4910 4922 3 
731 4919 5423 2 
732 5393 5394 1 
733 5402 5428 3 
734 5402 5401 1 
735 4909 4910 1 
736 5893 5894 1 
737 5394 4678 3 
738 5389 5390 1 
739 5412 378 3 
740 5412 5411 1 
741 5412 6156 3 
742 112 378 3 
743 112 111 1 
744 112 5412 3 
745 378 6156 3 
746 378 377 1 
747 6156 112 3 
748 6156 6155 1 
749 1431 1432 1 
750 426 425 1 
751 1926 1925 1 
752 2466 1926 3 
753 2184 2414 3 
754 2184 2183 1 
755 2184 2916 3 
756 2691 2692 1 
757 2916 2414 3 
758 2916 2915 1 
759 1924 2412 3 
760 1924 1923 1 
761 2936 1924 3 
762 2936 2935 1 
763 2412 2936 3 
764 2412 2411 1 
765 3631 3679 2 
766 3631 3632 1 
767 3679 3680 1 
768 3682 3681 1 
769 3632 3682 3 
770 2655 3151 2 
771 3657 3658 1 
772 3377 3378 1 
773 4428 4674 3 
774 4428 4427 1 
775 4428 4430 3 
776 4674 4168 3 
777 4674 4673 1 
778 4430 4168 3 
779 4430 4429 1 
780 4430 4674 3 
781 4168 4428 3 
782 4168 4167 1 
783 3378 4134 3 
784 4134 4133 1 
785 4908 4948 3 
786 4907 4908 1 
787 4911 4912 1 
788 4878 4400 3 
789 4878 4877 1 
790 4400 4888 3 
791 4400 4399 1 
792 4888 4878 3 
793 4888 4887 1 
794 4661 4662 1 
795 4661 4929 2 
796 4929 4930 1 
797 5174 5446 3 
798 5174 5173 1 
799 5446 5186 3 
800 5446 5445 1 
801 5186 5174 3 
802 5186 5185 1 
803 5894 5424 3 
804 5424 5423 1 
805 5447 5448 1 
806 5185 5447 2 
807 171 172 1 
808 914 674 3 
809 674 673 1 
810 425 447 2 
811 673 951 2 
812 936 682 3 
813 936 935 1 
814 710 936 3 
815 710 709 1 
816 932 426 3 
817 931 932 1 
818 1913 1914 1 
819 1155 1913 2 
820 1155 1156 1 
821 1922 1894 3 
822 1894 1893 1 
823 1672 2184 3 
824 1672 1671 1 
825 1672 2916 3 
826 2185 2186 1 
827 2185 2193 2 
828 2403 2404 1 
829 2684 2683 1 
830 2902 2684 3 
831 2427 2428 1 
832 4443 4444 1 
833 4458 4457 1 
834 4444 4458 3 
835 4401 4402 1 
836 3947 3948 1 
837 3947 4709 2 
838 4912 4700 3 
839 4700 4699 1 
840 4709 4710 1 
841 5177 5445 2 
842 5413 5659 2 
843 5671 5672 1 
844 6217 6218 1 
845 5956 5444 3 
846 5956 5955 1 
847 5444 5660 3 
848 5444 5443 1 
849 5660 5956 3 
850 5660 5659 1 
851 6203 6204 1 
852 170 169 1 
853 190 170 3 
854 943 944 1 
855 445 943 2 
856 214 213 1 
857 452 214 3 
858 913 914 1 
859 405 913 2 
860 459 935 2 
861 6213 6214 1 
862 672 936 3 
863 672 671 1 
864 672 710 3 
865 682 672 3 
866 682 681 1 
867 682 710 3 
868 460 702 3 
869 460 459 1 
870 460 692 3 
871 952 460 3 
872 952 951 1 
873 692 702 3 
874 692 691 1 
875 692 952 3 
876 702 952 3 
877 702 701 1 
878 694 693 1 
879 941 942 1 
880 671 921 2 
881 701 1173 2 
882 1453 1665 2 
883 1665 1666 1 
884 1681 1682 1 
885 1172 1171 1 
886 1934 1412 3 
887 1934 1933 1 
888 1192 1934 3 
889 1192 1191 1 
890 1412 1192 3 
891 1412 1411 1 
892 2437 2438 1 
893 2431 2432 1 
894 2431 2437 2 
895 2924 2923 1 
896 3202 2924 3 
897 3189 3190 1 
898 3711 3712 1 
899 3421 3422 1 
900 3421 3711 2 
901 2923 2947 2 
902 2947 2948 1 
903 3422 3702 3 
904 3702 3701 1 
905 3927 3928 1 
906 4672 4671 1 
907 4426 3662 3 
908 4426 4425 1 
909 3661 3927 2 
910 4220 4672 3 
911 3457 3683 2 
912 3662 4668 3 
913 3662 3661 1 
914 4668 4426 3 
915 4668 4667 1 
916 3683 3684 1 
917 4961 4962 1 
918 4423 4424 1 
919 4423 4961 2 
920 4683 4945 2 
921 4684 4216 3 
922 4684 4683 1 
923 4945 4946 1 
924 5918 5917 1 
925 6222 6221 1 
926 5210 6222 3 
927 423 5933 2 
928 6184 5918 3 
929 194 193 1 
930 5902 446 3 
931 5902 5901 1 
932 446 1384 3 
933 446 445 1 
934 1384 5902 3 
935 1384 1383 1 
936 196 194 3 
937 205 429 2 
938 451 452 1 
939 183 691 2 
940 699 1215 2 
941 1215 1216 1 
942 184 183 1 
943 471 661 2 
944 1230 184 3 
945 1725 1726 1 
946 1939 2205 2 
947 1452 998 3 
948 2205 2206 1 
949 1720 1719 1 
950 1942 1964 3 
951 1942 1941 1 
952 3945 4671 2 
953 3701 3975 2 
954 3961 3962 1 
955 3961 4435 2 
956 3975 3976 1 
957 4435 4436 1 
958 4681 4682 1 
959 4681 4715 2 
960 3686 4694 3 
961 3686 3685 1 
962 4215 4437 2 
963 4437 4438 1 
964 4707 4708 1 
965 4162 4684 3 
966 4162 4161 1 
967 4216 4162 3 
968 4216 4215 1 
969 4161 5199 2 
970 5224 5223 1 
971 5458 5224 3 
972 5677 5678 1 
973 6183 6184 1 
974 5966 204 3 
975 5966 5965 1 
976 204 5932 3 
977 204 203 1 
978 204 5934 3 
979 5937 5938 1 
980 5932 5966 3 
981 5932 5931 1 
982 5932 5934 3 
983 5934 5966 3 
984 5934 5933 1 
985 5206 5964 3 
986 5206 5205 1 
987 6174 5206 3 
988 6174 6173 1 
989 5964 6174 3 
990 5964 5963 1 
991 5723 5724 1 
992 5723 6221 2 
993 195 196 1 
994 6163 6164 1 
995 465 466 1 
996 5967 6173 2 
997 197 449 2 
998 221 222 1 
999 209 210 1 
1000 209 729 2 
1001 461 462 1 
1002 264 192 3 
1003 264 263 1 
1004 8 264 3 
1005 8 7 1 
1006 192 8 3 
1007 192 191 1 
1008 6195 6196 1 
1009 1211 1212 1 
1010 1211 1221 2 
1011 1221 1222 1 
1012 1451 1452 1 
1013 1943 1944 1 
1014 2195 2196 1 
1015 2195 2207 2 
1016 2196 2208 3 
1017 2196 2702 3 
1018 2208 2207 1 
1019 2208 3432 3 
1020 1955 2723 2 
1021 2701 2702 1 
1022 2701 3443 2 
1023 3443 3444 1 
1024 3232 3964 3 
1025 3232 3231 1 
1026 3964 3192 3 
1027 3964 3963 1 
1028 3192 3232 3 
1029 3192 3191 1 
1030 3221 3222 1 
1031 4987 4988 1 
1032 4963 4964 1 
1033 4471 4963 2 
1034 4988 4206 3 
1035 4206 4205 1 
1036 203 5207 2 
1037 5207 5208 1 
1038 5463 5464 1 
1039 5463 5937 2 
1040 5724 5714 3 
1041 5714 5713 1 
1042 462 198 3 
1043 198 197 1 
1044 1476 1488 3 
1045 1488 1487 1 
1046 725 726 1 
1047 1497 1498 1 
1048 2235 2236 1 
1049 1718 2240 3 
1050 1978 1956 3 
1051 1978 1977 1 
1052 1482 1978 3 
1053 1482 1481 1 
1054 1956 1482 3 
1055 1956 1955 1 
1056 2990 2966 3 
1057 2242 2224 3 
1058 2242 2241 1 
1059 2224 2972 3 
1060 2224 2223 1 
1061 2972 2242 3 
1062 2972 2971 1 
1063 2966 2965 1 
1064 2719 3231 2 
1065 2231 2232 1 
1066 2231 3233 2 
1067 3233 3234 1 
1068 3462 3482 3 
1069 3482 3481 1 
1070 3225 3226 1 
1071 3225 3963 2 
1072 3751 3752 1 
1073 4970 4480 3 
1074 4970 4969 1 
1075 4480 4260 3 
1076 4480 4479 1 
1077 4260 4970 3 
1078 4260 4259 1 
1079 4717 4718 1 
1080 4479 4713 2 
1081 4975 4976 1 
1082 6211 6212 1 
1083 5995 5996 1 
1084 5713 6005 2 
1085 225 226 1 
1086 217 1951 2 
1087 717 718 1 
1088 1951 1952 1 
1089 505 506 1 
1090 505 743 2 
1091 1475 1476 1 
1092 1247 1475 2 
1093 1498 1994 3 
1094 1498 2240 3 
1095 2240 2239 1 
1096 1994 2240 3 
1097 2243 2244 1 
1098 1741 2243 2 
1099 2729 2730 1 
1100 1474 1478 3 
1101 1481 2239 2 
1102 2706 2705 1 
1103 2244 2706 3 
1104 3210 2986 3 
1105 3210 3209 1 
1106 3210 3214 3 
1107 3214 2986 3 
1108 3214 3213 1 
1109 2994 3214 3 
1110 2994 2993 1 
1111 2994 3210 3 
1112 2247 2248 1 
1113 2986 2994 3 
1114 2986 2985 1 
1115 2720 2719 1 
1116 2734 2720 3 
1117 2733 2985 2 
1118 2733 2734 1 
1119 3484 2998 3 
1120 2998 2997 1 
1121 2453 2454 1 
1122 2453 3519 2 
1123 3478 3508 3 
1124 3478 3477 1 
1125 3722 3478 3 
1126 3722 3721 1 
1127 3722 4486 3 
1128 4486 3478 3 
1129 4486 4485 1 
1130 3508 4486 3 
1131 3508 3507 1 
1132 3508 3722 3 
1133 3491 3492 1 
1134 3749 3750 1 
1135 3758 3966 3 
1136 3758 3757 1 
1137 3494 3758 3 
1138 3494 3493 1 
1139 3966 3494 3 
1140 3966 3965 1 
1141 5490 5266 3 
1142 5490 5489 1 
1143 5266 5492 3 
1144 5266 5265 1 
1145 5018 5266 3 
1146 5018 5017 1 
1147 5018 5492 3 
1148 5018 5490 3 
1149 5492 5490 3 
1150 5492 5491 1 
1151 5245 5246 1 
1152 5735 5736 1 
1153 226 5974 3 
1154 226 236 3 
1155 253 254 1 
1156 4998 6000 3 
1157 4998 4997 1 
1158 2 4998 3 
1159 2 1 1 
1160 2 6000 3 
1161 2 5456 3 
1162 5456 4998 3 
1163 5456 5455 1 
1164 6000 5456 3 
1165 6000 5999 1 
1166 242 241 1 
1167 242 5974 3 
1168 236 242 3 
1169 236 5974 3 
1170 6025 6026 1 
1171 245 246 1 
1172 1005 1006 1 
1173 485 1239 2 
1174 234 233 1 
1175 1242 486 3 
1176 506 234 3 
1177 486 485 1 
1178 1239 1240 1 
1179 1241 1242 1 
1180 1013 1241 2 
1181 1014 1256 3 
1182 1014 1013 1 
1183 1250 1014 3 
1184 1250 1249 1 
1185 1256 1250 3 
1186 1256 1255 1 
1187 1973 1974 1 
1188 2245 2246 1 
1189 1478 1477 1 
1190 1507 2225 2 
1191 1735 1736 1 
1192 2489 2490 1 
1193 2497 2498 1 
1194 2251 2489 2 
1195 2993 3217 2 
1196 3483 3741 2 
1197 3483 3484 1 
1198 3493 4021 2 
1199 4011 4012 1 
1200 3281 3282 1 
1201 4521 4522 1 
1202 4521 4761 2 
1203 4999 5237 2 
1204 5504 4752 3 
1205 5504 5503 1 
1206 5489 5789 2 
1207 4735 4736 1 
1208 4493 4494 1 
1209 4493 4735 2 
1210 5472 5748 3 
1211 5472 5471 1 
1212 5734 5472 3 
1213 5734 5733 1 
1214 5734 6232 3 
1215 6232 5472 3 
1216 6232 6231 1 
1217 6016 520 3 
1218 6016 6015 1 
1219 30 6016 3 
1220 30 29 1 
1221 520 30 3 
1222 520 519 1 
1223 10 6042 3 
1224 6042 6041 1 
1225 5754 5518 3 
1226 5754 5753 1 
1227 490 5754 3 
1228 490 489 1 
1229 763 764 1 
1230 1240 6 3 
1231 756 755 1 
1232 754 756 3 
1233 6 5 1 
1234 516 284 3 
1235 981 982 1 
1236 981 1235 2 
1237 755 1499 2 
1238 1243 1244 1 
1239 1236 1235 1 
1240 1483 1484 1 
1241 1251 1252 1 
1242 1011 1012 1 
1243 1011 1483 2 
1244 1537 1538 1 
1245 1786 1008 3 
1246 1786 1785 1 
1247 1501 1502 1 
1248 1501 1537 2 
1249 1008 1280 3 
1250 1008 1007 1 
1251 1008 1508 3 
1252 1280 1786 3 
1253 1280 1279 1 
1254 1508 1280 3 
1255 1508 1507 1 
1256 1508 1786 3 
1257 1748 1747 1 
1258 1724 1748 3 
1259 1767 1768 1 
1260 2011 2012 1 
1261 2011 2741 2 
1262 2486 2485 1 
1263 2002 2486 3 
1264 2741 2742 1 
1265 2005 2007 2 
1266 1723 2253 2 
1267 1723 1724 1 
1268 2253 2254 1 
1269 2981 2982 1 
1270 2503 2504 1 
1271 2503 2739 2 
1272 2508 2276 3 
1273 2508 2507 1 
1274 2508 2754 3 
1275 2754 2276 3 
1276 2754 2753 1 
1277 2276 2018 3 
1278 2276 2275 1 
1279 2018 2508 3 
1280 2018 2017 1 
1281 2018 2754 3 
1282 2280 2279 1 
1283 2280 2492 3 
1284 2280 2786 3 
1285 2279 2509 2 
1286 2778 3006 3 
1287 2778 2777 1 
1288 3256 3255 1 
1289 3002 2778 3 
1290 3002 3001 1 
1291 3002 3006 3 
1292 3006 2992 3 
1293 3006 3005 1 
1294 3495 3496 1 
1295 3228 3248 3 
1296 3228 3227 1 
1297 3759 3767 2 
1298 3767 3768 1 
1299 2996 3228 3 
1300 2996 2995 1 
1301 3248 2996 3 
1302 3248 3247 1 
1303 3271 3495 2 
1304 3504 4022 3 
1305 3502 3501 1 
1306 3992 3502 3 
1307 3764 3778 3 
1308 3770 3769 1 
1309 4748 4462 3 
1310 4503 4504 1 
1311 3769 4503 2 
1312 3527 3528 1 
1313 3527 3777 2 
1314 4462 4461 1 
1315 4264 5036 3 
1316 4264 4263 1 
1317 4264 4534 3 
1318 4282 4264 3 
1319 4282 4281 1 
1320 4282 4534 3 
1321 4271 4743 2 
1322 4289 4497 2 
1323 4487 4488 1 
1324 4758 4724 3 
1325 4243 4495 2 
1326 5011 5012 1 
1327 4780 4262 3 
1328 4780 4779 1 
1329 5737 5738 1 
1330 5259 5260 1 
1331 5259 5737 2 
1332 5014 5502 3 
1333 5743 5744 1 
1334 4515 4741 2 
1335 4262 4516 3 
1336 4262 4261 1 
1337 4993 4994 1 
1338 5025 5026 1 
1339 4729 4993 2 
1340 5502 5501 1 
1341 4755 5501 2 
1342 5505 5506 1 
1343 5741 5742 1 
1344 5276 5758 3 
1345 5276 5275 1 
1346 5758 5020 3 
1347 5758 5757 1 
1348 6234 6004 3 
1349 6234 6233 1 
1350 5499 5500 1 
1351 5499 5505 2 
1352 5518 490 3 
1353 5518 5517 1 
1354 6224 250 3 
1355 6224 6223 1 
1356 250 6008 3 
1357 250 249 1 
1358 6008 6224 3 
1359 6008 6007 1 
1360 6001 6002 1 
1361 6001 6009 2 
1362 6242 6010 3 
1363 5766 5765 1 
1364 5766 6242 3 
1365 274 273 1 
1366 274 6010 3 
1367 1015 1016 1 
1368 33 501 2 
1369 501 502 1 
1370 25 26 1 
1371 258 38 3 
1372 38 37 1 
1373 526 522 3 
1374 526 1022 3 
1375 515 516 1 
1376 502 1022 3 
1377 522 521 1 
1378 522 768 3 
1379 787 788 1 
1380 787 1029 2 
1381 1276 1030 3 
1382 1276 1275 1 
1383 284 283 1 
1384 1030 782 3 
1385 1030 1029 1 
1386 535 1021 2 
1387 1021 1022 1 
1388 782 1276 3 
1389 782 781 1 
1390 1038 772 3 
1391 1038 1037 1 
1392 781 1523 2 
1393 1032 1038 3 
1394 1032 1031 1 
1395 772 1032 3 
1396 772 771 1 
1397 1780 1034 3 
1398 1780 1779 1 
1399 2020 1780 3 
1400 2020 2019 1 
1401 1034 2020 3 
1402 1034 1033 1 
1403 1746 1034 3 
1404 1746 1745 1 
1405 1746 1780 3 
1406 1746 2020 3 
1407 760 1054 3 
1408 760 759 1 
1409 1308 760 3 
1410 1308 1307 1 
1411 1054 1308 3 
1412 1054 1053 1 
1413 1279 2019 2 
1414 1265 1266 1 
1415 1265 2273 2 
1416 1266 2014 3 
1417 1747 1757 2 
1418 1757 1758 1 
1419 2023 2293 2 
1420 2049 2050 1 
1421 2504 2740 3 
1422 1519 2275 2 
1423 2540 2286 3 
1424 2286 2285 1 
1425 3018 2760 3 
1426 2760 2759 1 
1427 2539 2540 1 
1428 2481 2482 1 
1429 2481 3017 2 
1430 2992 2778 3 
1431 2992 2991 1 
1432 2992 3002 3 
1433 3017 3018 1 
1434 2512 2530 3 
1435 2512 2522 3 
1436 2772 2530 3 
1437 2772 2771 1 
1438 2532 2772 3 
1439 2532 2531 1 
1440 2261 2771 2 
1441 2511 2512 1 
1442 2511 2767 2 
1443 2513 2514 1 
1444 2768 2792 3 
1445 2768 2767 1 
1446 3268 2768 3 
1447 3268 3267 1 
1448 2792 3268 3 
1449 2792 2791 1 
1450 3272 3034 3 
1451 3272 3271 1 
1452 3272 3538 3 
1453 3304 3550 3 
1454 3550 3549 1 
1455 2262 3262 3 
1456 2262 2261 1 
1457 2262 2518 3 
1458 3788 2262 3 
1459 3788 3787 1 
1460 2518 3262 3 
1461 2518 2517 1 
1462 2518 3788 3 
1463 3522 3521 1 
1464 3262 3788 3 
1465 3262 3261 1 
1466 4258 3522 3 
1467 3034 3264 3 
1468 3034 3033 1 
1469 3030 3756 3 
1470 3030 3029 1 
1471 2784 2783 1 
1472 3511 3512 1 
1473 3809 3810 1 
1474 3273 3274 1 
1475 3273 3809 2 
1476 2783 3269 2 
1477 3013 4513 2 
1478 3778 3777 1 
1479 4285 4286 1 
1480 4017 4285 2 
1481 4513 4514 1 
1482 4039 4040 1 
1483 4039 4277 2 
1484 3016 3798 3 
1485 3016 3015 1 
1486 4534 5036 3 
1487 4534 4533 1 
1488 5036 4282 3 
1489 5036 5035 1 
1490 4266 4272 3 
1491 4266 4265 1 
1492 4266 4270 3 
1493 4278 4266 3 
1494 4278 4277 1 
1495 4270 4272 3 
1496 4270 4269 1 
1497 4270 4278 3 
1498 4272 4278 3 
1499 4272 4271 1 
1500 4281 4787 2 
1501 4497 4498 1 
1502 4529 4530 1 
1503 4245 4529 2 
1504 4498 4268 3 
1505 4268 4267 1 
1506 4047 4499 2 
1507 4273 4274 1 
1508 4273 5297 2 
1509 4516 4780 3 
1510 4516 4515 1 
1511 4261 4267 2 
1512 4776 5530 3 
1513 5530 5529 1 
1514 4775 4776 1 
1515 4775 5011 2 
1516 4745 5021 2 
1517 5013 5014 1 
1518 4773 5013 2 
1519 4781 4782 1 
1520 4781 5529 2 
1521 5494 5750 3 
1522 5750 5749 1 
1523 5764 5006 3 
1524 5761 5762 1 
1525 247 5753 2 
1526 6010 6009 1 
1527 6010 5766 3 
1528 22 512 3 
1529 22 274 3 
1530 22 6242 3 
1531 512 511 1 
1532 512 274 3 
1533 512 5766 3 
1534 6023 6037 2 
1535 21 22 1 
1536 21 511 2 
1537 6024 5800 3 
1538 6024 6023 1 
1539 6024 6032 3 
1540 5515 5516 1 
1541 6032 5774 3 
1542 6032 6031 1 
1543 11 6051 2 
1544 37 6039 2 
1545 23 24 1 
1546 273 541 2 
1547 6051 6052 1 
1548 6039 6040 1 
1549 1016 550 3 
1550 550 549 1 
1551 514 513 1 
1552 788 514 3 
1553 785 786 1 
1554 1067 1068 1 
1555 521 1067 2 
1556 275 276 1 
1557 281 282 1 
1558 281 785 2 
1559 776 775 1 
1560 276 776 3 
1561 285 1275 2 
1562 793 794 1 
1563 1041 1042 1 
1564 1018 1040 3 
1565 1018 1017 1 
1566 1018 1534 3 
1567 1274 1018 3 
1568 1274 1273 1 
1569 1534 1274 3 
1570 1534 1533 1 
1571 771 1533 2 
1572 1278 1268 3 
1573 1278 1277 1 
1574 1278 1760 3 
1575 1278 1536 3 
1576 1536 1268 3 
1577 1536 1535 1 
1578 1760 1536 3 
1579 1760 1759 1 
1580 1268 1760 3 
1581 1268 1267 1 
1582 1261 1557 2 
1583 1512 534 3 
1584 1055 1056 1 
1585 534 533 1 
1586 2062 1284 3 
1587 2062 2061 1 
1588 1777 1778 1 
1589 1528 2062 3 
1590 1528 1527 1 
1591 1528 1802 3 
1592 1284 1528 3 
1593 1284 1283 1 
1594 1284 1802 3 
1595 1267 1549 2 
1596 1511 1512 1 
1597 1511 1743 2 
1598 1743 1744 1 
1599 1802 2062 3 
1600 1802 1801 1 
1601 2014 2013 1 
1602 1283 1521 2 
1603 1744 2024 3 
1604 1521 1522 1 
1605 2024 2023 1 
1606 2025 2026 1 
1607 2025 2807 2 
1608 2297 2298 1 
1609 2040 1544 3 
1610 2040 2039 1 
1611 2318 2040 3 
1612 2318 2317 1 
1613 2763 2764 1 
1614 2271 2272 1 
1615 2271 2763 2 
1616 2571 2572 1 
1617 2759 3251 2 
1618 2522 2532 3 
1619 2522 2772 3 
1620 2530 2532 3 
1621 2530 2529 1 
1622 2519 2520 1 
1623 2798 3546 3 
1624 2798 2797 1 
1625 3026 2798 3 
1626 3026 3025 1 
1627 3546 3026 3 
1628 3546 3545 1 
1629 3020 2798 3 
1630 3020 3019 1 
1631 3020 3546 3 
1632 3020 3026 3 
1633 2281 2529 2 
1634 2521 2522 1 
1635 2521 3515 2 
1636 3515 3516 1 
1637 3549 3779 2 
1638 4257 4258 1 
1639 3779 3780 1 
1640 3033 4061 2 
1641 4024 4023 1 
1642 3270 4024 3 
1643 3311 3312 1 
1644 3311 3547 2 
1645 3269 3270 1 
1646 4028 3544 3 
1647 4028 4027 1 
1648 3544 4046 3 
1649 3544 3543 1 
1650 3014 3544 3 
1651 3014 3013 1 
1652 3014 4028 3 
1653 3014 4046 3 
1654 4046 4028 3 
1655 4046 4045 1 
1656 4035 4036 1 
1657 3798 3812 3 
1658 3798 3797 1 
1659 3812 3016 3 
1660 3812 3811 1 
1661 4040 3320 3 
1662 4518 4772 3 
1663 4518 4517 1 
1664 4029 4030 1 
1665 5024 4518 3 
1666 5024 5023 1 
1667 4772 5024 3 
1668 4772 4771 1 
1669 3320 3319 1 
1670 4810 4056 3 
1671 4763 5023 2 
1672 4764 4532 3 
1673 4764 4763 1 
1674 4287 4288 1 
1675 4809 4810 1 
1676 4288 5298 3 
1677 4246 4526 3 
1678 4246 4245 1 
1679 4558 5032 3 
1680 4558 4557 1 
1681 4558 5054 3 
1682 4558 5254 3 
1683 5032 5054 3 
1684 5032 5031 1 
1685 5298 5297 1 
1686 5039 5535 2 
1687 5033 5034 1 
1688 5054 5254 3 
1689 5054 5053 1 
1690 5001 5263 2 
1691 4753 5533 2 
1692 5533 5534 1 
1693 5022 4520 3 
1694 5022 5021 1 
1695 4774 5022 3 
1696 4774 4773 1 
1697 4774 5016 3 
1698 4520 4774 3 
1699 4520 4519 1 
1700 5016 4520 3 
1701 5016 5015 1 
1702 5016 5022 3 
1703 5261 5987 2 
1704 5262 5261 1 
1705 5759 5760 1 
1706 5987 5988 1 
1707 6011 6012 1 
1708 5762 5004 3 
1709 5004 5003 1 
1710 5320 5532 3 
1711 5767 5768 1 
1712 5003 5515 2 
1713 5800 5774 3 
1714 5800 5799 1 
1715 5800 6032 3 
1716 5774 6024 3 
1717 5774 5773 1 
1718 279 280 1 
1719 36 35 1 
1720 5782 36 3 
1721 19 20 1 
1722 19 39 2 
1723 39 40 1 
1724 1035 1036 1 
1725 1035 1329 2 
1726 1329 1330 1 
1727 527 549 2 
1728 557 789 2 
1729 789 790 1 
1730 290 289 1 
1731 794 290 3 
1732 289 1759 2 
1733 806 1556 3 
1734 806 805 1 
1735 806 1558 3 
1736 806 1546 3 
1737 320 762 3 
1738 1505 1506 1 
1739 1505 1801 2 
1740 319 320 1 
1741 2283 2284 1 
1742 1539 1540 1 
1743 2289 2290 1 
1744 1773 1774 1 
1745 1773 2297 2 
1746 2545 2546 1 
1747 1321 1322 1 
1748 1321 2545 2 
1749 2808 2807 1 