ITEM: TIMESTEP
86240
ITEM: NUMBER OF ENTRIES
8102
ITEM: BOX BOUNDS pp pp ff
0.0000000000000000e+00 7.2168784000000002e+01
0.0000000000000000e+00 7.2168784000000002e+01
0.0000000000000000e+00 1.2000000000000000e+01
ITEM: ENTRIES index c_1[1] c_1[2] c_1[3]
1 248 12 3 
2 248 247 1 
3 6022 248 3 
4 6022 6021 1 
5 12 34 3 
6 12 11 1 
7 12 6022 3 
8 34 248 3 
9 34 33 1 
10 34 6022 3 
11 6018 474 3 
12 6018 6017 1 
13 249 5517 2 
14 6014 6018 3 
15 6014 6013 1 
16 24 474 3 
17 24 23 1 
18 24 6018 3 
19 24 6014 3 
20 474 6014 3 
21 474 473 1 
22 11 6051 2 
23 6051 6052 1 
24 501 502 1 
25 6002 244 3 
26 489 519 2 
27 244 243 1 
28 243 475 2 
29 33 501 2 
30 6052 748 3 
31 748 747 1 
32 1242 1738 3 
33 1242 1241 1 
34 486 1242 3 
35 486 485 1 
36 535 1021 2 
37 1019 1779 2 
38 1747 1757 2 
39 1748 1766 3 
40 1748 1747 1 
41 1724 1748 3 
42 1724 1723 1 
43 1724 2012 3 
44 2012 1748 3 
45 2012 2011 1 
46 1766 1724 3 
47 1766 1765 1 
48 1766 2012 3 
49 2279 2509 2 
50 2242 2224 3 
51 2242 2241 1 
52 2777 3787 2 
53 2223 3447 2 
54 2261 2771 2 
55 2262 3262 3 
56 2262 2261 1 
57 2262 2518 3 
58 3261 3545 2 
59 3262 3788 3 
60 3262 3261 1 
61 3788 2262 3 
62 3788 3787 1 
63 2518 3262 3 
64 2518 2517 1 
65 2518 3788 3 
66 2991 3277 2 
67 3277 3278 1 
68 3543 3811 2 
69 4018 3506 3 
70 4018 4017 1 
71 4018 4726 3 
72 4504 4018 3 
73 4504 4503 1 
74 4504 4726 3 
75 4726 3506 3 
76 4726 4725 1 
77 3506 4504 3 
78 3506 3505 1 
79 3502 3501 1 
80 3992 3502 3 
81 3505 3765 2 
82 5244 5243 1 
83 4736 5244 3 
84 4735 4736 1 
85 4493 4735 2 
86 29 251 2 
87 5765 6013 2 
88 21 22 1 
89 21 511 2 
90 6011 6021 2 
91 521 1067 2 
92 6001 6002 1 
93 6001 6009 2 
94 1738 486 3 
95 1738 1737 1 
96 1042 1244 3 
97 1042 1041 1 
98 1244 778 3 
99 1244 1243 1 
100 778 1042 3 
101 778 777 1 
102 545 553 2 
103 536 1002 3 
104 536 535 1 
105 536 1758 3 
106 1002 1020 3 
107 1002 1001 1 
108 1002 1758 3 
109 1758 1020 3 
110 1758 1757 1 
111 1020 536 3 
112 1020 1019 1 
113 2791 3267 2 
114 2526 2764 3 
115 2526 2525 1 
116 2298 2526 3 
117 2298 2297 1 
118 2298 2774 3 
119 2764 2298 3 
120 2764 2763 1 
121 2002 2486 3 
122 2002 2774 3 
123 2486 2485 1 
124 2486 2774 3 
125 1768 2510 3 
126 2510 2509 1 
127 2531 2731 2 
128 2760 2759 1 
129 2530 2532 3 
130 2530 2529 1 
131 2512 2530 3 
132 2512 2522 3 
133 2522 2532 3 
134 2522 2772 3 
135 2301 2302 1 
136 2301 2797 2 
137 3013 4513 2 
138 4011 4012 1 
139 3544 4046 3 
140 3544 3543 1 
141 3014 3544 3 
142 3014 3013 1 
143 3014 4028 3 
144 3014 4046 3 
145 4028 3544 3 
146 4028 4027 1 
147 4046 4028 3 
148 4046 4045 1 
149 3769 4503 2 
150 4017 4285 2 
151 4285 4286 1 
152 4273 5297 2 
153 5496 5278 3 
154 5496 5495 1 
155 5278 5520 3 
156 5278 5277 1 
157 5520 5496 3 
158 5520 5519 1 
159 5069 5070 1 
160 5003 5515 2 
161 15 499 2 
162 273 541 2 
163 6012 5772 3 
164 6012 6011 1 
165 5772 252 3 
166 5772 5771 1 
167 5768 5772 3 
168 5768 5767 1 
169 5768 6012 3 
170 252 6012 3 
171 252 251 1 
172 252 5768 3 
173 1035 1329 2 
174 1330 1329 1 
175 1067 1068 1 
176 20 1330 3 
177 292 291 1 
178 786 296 3 
179 786 785 1 
180 786 790 3 
181 518 786 3 
182 518 517 1 
183 518 790 3 
184 5804 292 3 
185 1281 1541 2 
186 1267 1549 2 
187 289 1759 2 
188 1774 1282 3 
189 1774 1773 1 
190 1522 1774 3 
191 1522 1521 1 
192 1522 1772 3 
193 1772 1774 3 
194 1772 1771 1 
195 1282 1772 3 
196 1282 1281 1 
197 1282 1522 3 
198 1773 2297 2 
199 2759 3251 2 
200 2818 2296 3 
201 2818 2817 1 
202 2296 2314 3 
203 2296 2295 1 
204 2314 1520 3 
205 2314 2313 1 
206 2314 2818 3 
207 1520 2296 3 
208 1520 1519 1 
209 1520 2818 3 
210 2037 2527 2 
211 2527 2528 1 
212 2302 2512 3 
213 2281 2529 2 
214 3803 3804 1 
215 3803 4051 2 
216 3804 4052 3 
217 3770 3769 1 
218 4012 3770 3 
219 4287 4288 1 
220 4801 4802 1 
221 5759 5760 1 
222 5277 5283 2 
223 5762 5004 3 
224 5762 5761 1 
225 4765 5537 2 
226 28 4766 3 
227 28 27 1 
228 28 5004 3 
229 28 5762 3 
230 4766 5762 3 
231 4766 4765 1 
232 5004 4766 3 
233 5004 5003 1 
234 18 5788 3 
235 5788 5787 1 
236 5803 5804 1 
237 6030 5540 3 
238 6030 6029 1 
239 296 518 3 
240 296 295 1 
241 790 296 3 
242 790 789 1 
243 258 38 3 
244 38 37 1 
245 291 795 2 
246 1278 1268 3 
247 1278 1277 1 
248 1278 1760 3 
249 1278 1536 3 
250 1760 1536 3 
251 1760 1759 1 
252 1268 1760 3 
253 1268 1267 1 
254 1536 1268 3 
255 1536 1535 1 
256 1792 2308 3 
257 1792 1791 1 
258 1542 1792 3 
259 1542 1541 1 
260 1542 2308 3 
261 2308 1290 3 
262 2308 2307 1 
263 1289 2283 2 
264 1290 1792 3 
265 1290 1289 1 
266 1290 1542 3 
267 1778 1292 3 
268 1778 1777 1 
269 2284 1778 3 
270 2284 2283 1 
271 1292 2284 3 
272 1292 1291 1 
273 2961 2962 1 
274 2563 2817 2 
275 2313 2775 2 
276 1783 3035 2 
277 3310 3792 3 
278 3310 3309 1 
279 3792 3292 3 
280 3792 3791 1 
281 3292 3310 3 
282 3292 3291 1 
283 4025 4026 1 
284 4025 3745 2 
285 3031 3309 2 
286 4005 4287 2 
287 3305 3581 2 
288 3786 3785 1 
289 3574 4066 3 
290 3574 3573 1 
291 3306 3558 3 
292 3306 3305 1 
293 3306 3574 3 
294 4803 5797 2 
295 5284 4804 3 
296 5284 5283 1 
297 4804 5296 3 
298 4804 4803 1 
299 5296 5284 3 
300 5296 5295 1 
301 5318 5317 1 
302 5544 5318 3 
303 783 5777 2 
304 798 314 3 
305 798 797 1 
306 1539 1791 2 
307 1302 1540 3 
308 1302 1301 1 
309 1572 1302 3 
310 1572 1571 1 
311 2564 2776 3 
312 2564 2563 1 
313 3840 3602 3 
314 3840 3839 1 
315 3602 3832 3 
316 3602 3601 1 
317 3832 3840 3 
318 3832 3831 1 
319 3291 3299 2 
320 3273 3809 2 
321 3582 4312 3 
322 3582 3581 1 
323 4588 3776 3 
324 4588 4587 1 
325 3332 4588 3 
326 3332 3331 1 
327 3860 3786 3 
328 5044 5302 3 
329 5044 5043 1 
330 5043 5317 2 
331 300 76 3 
332 300 299 1 
333 300 324 3 
334 562 300 3 
335 562 561 1 
336 76 562 3 
337 76 75 1 
338 70 798 3 
339 70 69 1 
340 70 72 3 
341 314 70 3 
342 314 313 1 
343 72 314 3 
344 72 71 1 
345 72 798 3 
346 1332 1066 3 
347 1332 1331 1 
348 1096 1095 1 
349 2316 1096 3 
350 1540 1572 3 
351 1540 1539 1 
352 1064 1572 3 
353 1064 1063 1 
354 1064 1540 3 
355 1064 1302 3 
356 1824 1800 3 
357 1824 1823 1 
358 2022 1824 3 
359 2022 2021 1 
360 2022 2292 3 
361 1800 2292 3 
362 1800 1799 1 
363 1800 2022 3 
364 2292 1824 3 
365 2292 2291 1 
366 2304 1314 3 
367 2581 2582 1 
368 1799 2069 2 
369 1063 1817 2 
370 2562 3086 3 
371 2562 2561 1 
372 2562 3074 3 
373 3074 3086 3 
374 3074 3073 1 
375 2844 2562 3 
376 2844 2843 1 
377 2844 3074 3 
378 3086 2844 3 
379 3086 3085 1 
380 3563 3831 2 
381 3607 3608 1 
382 3607 3813 2 
383 3596 3584 3 
384 3067 3321 2 
385 3584 3583 1 
386 3859 4075 2 
387 3859 3860 1 
388 3062 3582 3 
389 3062 3061 1 
390 3062 4312 3 
391 3062 3322 3 
392 3322 3582 3 
393 3322 3321 1 
394 4312 3322 3 
395 4312 4311 1 
396 4076 3064 3 
397 4076 4075 1 
398 3776 3332 3 
399 3776 3775 1 
400 3776 4086 3 
401 3331 3567 2 
402 3061 4311 2 
403 4291 4587 2 
404 3568 4058 3 
405 3568 3567 1 
406 3568 4300 3 
407 4292 3568 3 
408 4292 4291 1 
409 4292 4300 3 
410 4300 4058 3 
411 4300 4299 1 
412 5814 5044 3 
413 5814 5813 1 
414 5814 5830 3 
415 5302 5814 3 
416 5302 5301 1 
417 5302 5830 3 
418 5830 5044 3 
419 5830 5829 1 
420 74 6084 3 
421 74 73 1 
422 6084 5816 3 
423 6084 6083 1 
424 5610 74 3 
425 5610 5609 1 
426 5610 5816 3 
427 5610 6084 3 
428 5301 6087 2 
429 5816 74 3 
430 5816 5815 1 
431 324 76 3 
432 324 323 1 
433 324 562 3 
434 5559 6053 2 
435 61 6071 2 
436 345 575 2 
437 5808 5568 3 
438 5808 5807 1 
439 5794 5568 3 
440 5794 5793 1 
441 5794 5808 3 
442 582 338 3 
443 582 581 1 
444 581 1065 2 
445 572 306 3 
446 572 571 1 
447 572 582 3 
448 571 1559 2 
449 1560 1078 3 
450 1560 1559 1 
451 844 1560 3 
452 844 843 1 
453 1078 844 3 
454 1078 1077 1 
455 2291 2353 2 
456 2353 2354 1 
457 2057 2309 2 
458 2312 2311 1 
459 2070 2069 1 
460 2070 3352 3 
461 2354 2582 3 
462 2354 3038 3 
463 2582 2824 3 
464 2824 3038 3 
465 2046 2312 3 
466 2046 2582 3 
467 1790 2058 3 
468 1790 1789 1 
469 1790 2354 3 
470 3038 3037 1 
471 1826 2070 3 
472 2321 2857 2 
473 1845 1846 1 
474 1825 1845 2 
475 1825 1826 1 
476 2338 2072 3 
477 2072 2071 1 
478 1846 2580 3 
479 2580 2579 1 
480 2548 2550 3 
481 2548 2547 1 
482 2548 2554 3 
483 2809 2810 1 
484 3847 3829 2 
485 3327 2569 2 
486 3579 3821 2 
487 3579 3580 1 
488 3575 3815 2 
489 4072 4322 3 
490 4072 4071 1 
491 4058 4292 3 
492 4058 4057 1 
493 3816 4072 3 
494 3816 3815 1 
495 3816 4322 3 
496 4322 3572 3 
497 4322 4321 1 
498 3822 4572 3 
499 3822 3821 1 
500 3822 4610 3 
501 4572 3850 3 
502 4572 4571 1 
503 3849 4601 2 
504 3572 4072 3 
505 3572 3571 1 
506 3572 3816 3 
507 3835 4057 2 
508 4309 4543 2 
509 4340 4604 3 
510 4340 4339 1 
511 3836 4544 3 
512 3836 3835 1 
513 4343 4344 1 
514 4604 5346 3 
515 4604 4603 1 
516 4823 4824 1 
517 5081 5333 2 
518 5089 5090 1 
519 5316 6088 3 
520 6088 6087 1 
521 5083 5089 2 
522 5084 5340 3 
523 5084 5083 1 
524 5084 6072 3 
525 5084 5840 3 
526 5840 6072 3 
527 5840 5839 1 
528 6072 5340 3 
529 6072 6071 1 
530 5340 5840 3 
531 5340 5339 1 
532 5781 5782 1 
533 5568 5560 3 
534 5568 5567 1 
535 5560 5808 3 
536 5560 5559 1 
537 5560 5794 3 
538 5567 5781 2 
539 5807 5839 2 
540 81 82 1 
541 81 563 2 
542 338 572 3 
543 338 337 1 
544 306 338 3 
545 306 305 1 
546 306 582 3 
547 564 563 1 
548 564 840 3 
549 82 564 3 
550 82 840 3 
551 841 843 2 
552 1069 1327 2 
553 1367 1368 1 
554 1341 1342 1 
555 1341 1831 2 
556 2320 1600 3 
557 2320 2368 3 
558 2074 1810 3 
559 2074 2073 1 
560 2090 2074 3 
561 2090 2089 1 
562 1812 1810 3 
563 1812 1811 1 
564 1812 2074 3 
565 1812 2090 3 
566 1810 2090 3 
567 1810 1809 1 
568 1600 1599 1 
569 1600 2064 3 
570 1600 2368 3 
571 817 2319 2 
572 2319 2320 1 
573 2359 2367 2 
574 2367 2368 1 
575 2823 2824 1 
576 3044 2828 3 
577 3044 3043 1 
578 2828 3604 3 
579 2828 2827 1 
580 2592 2858 3 
581 2592 2591 1 
582 3604 3044 3 
583 3604 3603 1 
584 2337 2338 1 
585 2337 2827 2 
586 3093 3615 2 
587 3848 3830 3 
588 3848 3847 1 
589 4117 4341 2 
590 3818 3612 3 
591 3818 3817 1 
592 3612 4082 3 
593 3612 3611 1 
594 4082 3818 3 
595 4082 4081 1 
596 3850 3822 3 
597 3850 3849 1 
598 3850 4610 3 
599 4610 4572 3 
600 4610 4609 1 
601 4105 4609 2 
602 5346 4340 3 
603 5346 5345 1 
604 4544 4798 3 
605 4544 4543 1 
606 3833 4571 2 
607 3833 3834 1 
608 3827 3828 1 
609 3827 4343 2 
610 4798 3836 3 
611 4798 4797 1 
612 4339 4853 2 
613 5334 5098 3 
614 5334 5333 1 
615 5098 4836 3 
616 5098 5097 1 
617 5078 5098 3 
618 5078 5077 1 
619 5078 5334 3 
620 4853 4854 1 
621 653 1147 2 
622 115 857 2 
623 116 115 1 
624 90 116 3 
625 840 839 1 
626 839 1337 2 
627 1342 1596 3 
628 1342 1860 3 
629 842 1582 3 
630 842 841 1 
631 842 848 3 
632 1368 1596 3 
633 1596 1595 1 
634 1338 1114 3 
635 1338 1337 1 
636 1336 1860 3 
637 1336 1596 3 
638 1336 1342 3 
639 1335 1336 1 
640 1335 1809 2 
641 2064 2368 3 
642 2064 2120 3 
643 2120 818 3 
644 2120 2119 1 
645 818 1098 3 
646 818 817 1 
647 1098 2120 3 
648 1098 1097 1 
649 1811 2623 2 
650 2601 2609 2 
651 2082 2081 1 
652 3100 2854 3 
653 2854 2853 1 
654 2357 2358 1 
655 2351 2357 2 
656 2366 2365 1 
657 2096 2366 3 
658 3092 3606 3 
659 3092 3091 1 
660 3606 3864 3 
661 3606 3605 1 
662 3864 3092 3 
663 3864 3863 1 
664 2584 3360 3 
665 2584 2583 1 
666 3106 2584 3 
667 3106 3105 1 
668 3106 3112 3 
669 3112 2584 3 
670 3112 3111 1 
671 3112 3360 3 
672 3360 3106 3 
673 3360 3359 1 
674 4342 4122 3 
675 4342 4822 3 
676 4342 4341 1 
677 4122 4822 3 
678 4122 4346 3 
679 4122 4121 1 
680 4822 4346 3 
681 4822 4821 1 
682 3593 3863 2 
683 3111 3591 2 
684 4121 4607 2 
685 4087 4093 2 
686 2842 4350 3 
687 2842 2841 1 
688 4355 4603 2 
689 3834 4114 3 
690 4114 4113 1 
691 5364 3872 3 
692 4854 5352 3 
693 5352 5351 1 
694 4375 4376 1 
695 4375 5375 2 
696 5124 5136 3 
697 5124 5123 1 
698 5136 5368 3 
699 5136 5135 1 
700 5368 5124 3 
701 5368 5367 1 
702 616 654 3 
703 616 615 1 
704 5638 586 3 
705 5638 5637 1 
706 586 832 3 
707 586 585 1 
708 1634 1338 3 
709 1634 1633 1 
710 1081 1082 1 
711 1081 1833 2 
712 1394 1870 3 
713 1394 1393 1 
714 1852 1394 3 
715 1852 1851 1 
716 2815 2816 1 
717 2566 2565 1 
718 1850 2566 3 
719 1630 1836 3 
720 1630 1629 1 
721 1630 2602 3 
722 1606 1630 3 
723 1606 1605 1 
724 2602 1606 3 
725 2602 2601 1 
726 2344 2850 3 
727 2344 2343 1 
728 2344 2608 3 
729 2624 2344 3 
730 2624 2623 1 
731 2608 2624 3 
732 2608 2607 1 
733 2608 2850 3 
734 2850 2624 3 
735 2850 2849 1 
736 1836 1606 3 
737 1836 1835 1 
738 1836 2602 3 
739 1352 1820 3 
740 1352 1351 1 
741 3340 2616 3 
742 3340 3339 1 
743 1858 1857 1 
744 1858 3340 3 
745 1858 2616 3 
746 1820 1402 3 
747 1820 1819 1 
748 2616 2856 3 
749 2616 2615 1 
750 2856 1858 3 
751 2856 2855 1 
752 2856 3340 3 
753 2816 2082 3 
754 2826 2862 3 
755 2826 2825 1 
756 3099 3100 1 
757 1857 3099 2 
758 2862 3084 3 
759 2862 2861 1 
760 3084 2826 3 
761 3084 3083 1 
762 1402 1352 3 
763 1402 1401 1 
764 1868 2116 3 
765 2363 2861 2 
766 2365 2595 2 
767 2358 2870 3 
768 2611 3083 2 
769 2611 2612 1 
770 2870 2869 1 
771 3644 3844 3 
772 3644 3643 1 
773 3380 3644 3 
774 3380 3379 1 
775 3844 3380 3 
776 3844 3843 1 
777 3379 3895 2 
778 4346 4342 3 
779 4346 4345 1 
780 3375 3883 2 
781 3591 3592 1 
782 4842 4608 3 
783 4842 4841 1 
784 4570 4842 3 
785 4570 4569 1 
786 4570 4590 3 
787 4570 4608 3 
788 4608 4590 3 
789 4608 4607 1 
790 4590 4842 3 
791 4590 4589 1 
792 2841 3333 2 
793 4890 5354 3 
794 4890 4889 1 
795 5354 4592 3 
796 5354 5353 1 
797 4376 4844 3 
798 4376 5354 3 
799 4376 4592 3 
800 5351 5817 2 
801 4383 4889 2 
802 5585 5831 2 
803 361 362 1 
804 5597 5598 1 
805 5597 5637 2 
806 615 1431 2 
807 1356 1106 3 
808 1356 1355 1 
809 165 6143 2 
810 889 1371 2 
811 1870 1852 3 
812 1870 1869 1 
813 2128 2136 3 
814 2128 2127 1 
815 1131 1139 2 
816 1589 1849 2 
817 1849 1850 1 
818 1132 3134 3 
819 1132 1131 1 
820 2372 1132 3 
821 2372 2371 1 
822 3134 2372 3 
823 3134 3133 1 
824 1867 1868 1 
825 1867 2371 2 
826 1847 2615 2 
827 1848 1847 1 
828 1835 2115 2 
829 2595 2596 1 
830 2596 1848 3 
831 2869 3117 2 
832 3397 3843 2 
833 3896 3140 3 
834 3896 3895 1 
835 3140 3398 3 
836 3140 3139 1 
837 3398 3896 3 
838 3398 3397 1 
839 3398 3868 3 
840 3868 3140 3 
841 3868 3867 1 
842 3868 3896 3 
843 3376 4146 3 
844 3376 3375 1 
845 4146 3144 3 
846 4146 4145 1 
847 3144 3376 3 
848 3144 3143 1 
849 3852 3898 3 
850 3852 3851 1 
851 2866 3852 3 
852 2866 2865 1 
853 3143 3641 2 
854 3898 2866 3 
855 3898 3897 1 
856 3639 4145 2 
857 4870 4370 3 
858 4870 4869 1 
859 3626 4370 3 
860 3626 4870 3 
861 3626 4104 3 
862 4370 4104 3 
863 4370 4369 1 
864 4104 4870 3 
865 4104 4103 1 
866 4640 4628 3 
867 4640 4639 1 
868 4598 4646 3 
869 4598 4597 1 
870 4598 4628 3 
871 4598 4640 3 
872 4646 4640 3 
873 4646 4645 1 
874 4628 4646 3 
875 4628 4627 1 
876 5356 5122 3 
877 5356 5355 1 
878 4120 5356 3 
879 4120 4119 1 
880 5122 4120 3 
881 5122 5121 1 
882 4384 4383 1 
883 4362 4384 3 
884 5626 5625 1 
885 852 851 1 
886 1080 852 3 
887 342 102 3 
888 342 341 1 
889 342 878 3 
890 102 6086 3 
891 102 101 1 
892 102 878 3 
893 878 6086 3 
894 878 877 1 
895 6086 342 3 
896 6086 6085 1 
897 5598 5858 3 
898 5858 5857 1 
899 1432 1356 3 
900 1432 1431 1 
901 1106 1432 3 
902 1106 1105 1 
903 895 1873 2 
904 1381 1382 1 
905 1381 1897 2 
906 1651 1652 1 
907 1651 1917 2 
908 621 2173 2 
909 1855 1899 2 
910 1856 1366 3 
911 1856 1855 1 
912 1140 1856 3 
913 1140 1139 1 
914 1140 2896 3 
915 1366 1140 3 
916 1366 1365 1 
917 1366 2896 3 
918 2896 1856 3 
919 2896 2895 1 
920 2903 3133 2 
921 2903 2904 1 
922 2390 2389 1 
923 2904 2390 3 
924 3369 3867 2 
925 3370 3369 1 
926 2877 3897 2 
927 4923 4924 1 
928 3621 4421 2 
929 3923 4923 2 
930 4360 3406 3 
931 4360 4359 1 
932 5394 4678 3 
933 4139 4863 2 
934 4369 4869 2 
935 4851 4881 2 
936 4678 4677 1 
937 4669 4670 1 
938 4397 5355 2 
939 5114 4638 3 
940 5114 5113 1 
941 4864 4882 3 
942 4864 4863 1 
943 4864 5114 3 
944 4882 5114 3 
945 4882 4881 1 
946 4638 4882 3 
947 4638 4637 1 
948 4638 4864 3 
949 5121 5143 2 
950 4639 4669 2 
951 6116 5626 3 
952 5127 5361 2 
953 5432 5888 3 
954 5432 5431 1 
955 5888 5634 3 
956 5888 5887 1 
957 877 5875 2 
958 867 1149 2 
959 1144 1430 3 
960 1144 1143 1 
961 1149 1150 1 
962 622 1144 3 
963 622 621 1 
964 1874 1900 3 
965 1874 1873 1 
966 1918 1874 3 
967 1918 1917 1 
968 1900 1918 3 
969 1900 1899 1 
970 1358 1874 3 
971 1358 1357 1 
972 1358 1918 3 
973 1358 1900 3 
974 1898 1624 3 
975 1898 1897 1 
976 1162 1898 3 
977 1162 1161 1 
978 1624 1162 3 
979 1624 1623 1 
980 1624 1682 3 
981 1895 2401 2 
982 1364 1896 3 
983 1364 1363 1 
984 2402 2888 3 
985 2402 2401 1 
986 2872 2402 3 
987 2872 2871 1 
988 2888 2872 3 
989 2888 2887 1 
990 3137 3877 2 
991 3137 3138 1 
992 3146 3130 3 
993 3146 3145 1 
994 3636 3146 3 
995 3636 3635 1 
996 3130 3636 3 
997 3130 3129 1 
998 3162 3370 3 
999 3622 3621 1 
1000 4924 3622 3 
1001 5393 5394 1 
1002 5154 5144 3 
1003 5144 5143 1 
1004 5916 5624 3 
1005 5916 5915 1 
1006 5431 5653 2 
1007 5624 5128 3 
1008 5624 5623 1 
1009 5910 5624 3 
1010 5910 5909 1 
1011 5910 5916 3 
1012 660 6150 3 
1013 660 659 1 
1014 660 5172 3 
1015 660 6188 3 
1016 5172 6188 3 
1017 5172 5171 1 
1018 6150 5172 3 
1019 6150 6149 1 
1020 6188 6150 3 
1021 6188 6187 1 
1022 416 144 3 
1023 416 415 1 
1024 416 642 3 
1025 409 6187 2 
1026 953 1623 2 
1027 940 2130 3 
1028 940 939 1 
1029 940 1176 3 
1030 1176 2130 3 
1031 1176 1175 1 
1032 1176 1644 3 
1033 2130 1644 3 
1034 2130 2129 1 
1035 1644 940 3 
1036 1644 1643 1 
1037 3886 2912 3 
1038 2912 2911 1 
1039 4893 5153 2 
1040 5153 5154 1 
1041 4399 5617 2 
1042 4400 4888 3 
1043 4400 4399 1 
1044 4878 4400 3 
1045 4878 4877 1 
1046 4888 4878 3 
1047 4888 4887 1 
1048 5663 5664 1 
1049 5631 5632 1 
1050 5395 5631 2 
1051 5654 5692 3 
1052 5654 5653 1 
1053 172 914 3 
1054 172 171 1 
1055 172 430 3 
1056 172 674 3 
1057 391 649 2 
1058 954 1208 3 
1059 954 953 1 
1060 954 1174 3 
1061 1174 1208 3 
1062 1174 1173 1 
1063 1174 1182 3 
1064 1182 954 3 
1065 1182 1181 1 
1066 1208 1182 3 
1067 1208 1207 1 
1068 1436 2448 3 
1069 2185 2193 2 
1070 2673 3165 2 
1071 2674 3186 3 
1072 2674 2673 1 
1073 3918 3650 3 
1074 3650 3649 1 
1075 2670 2192 3 
1076 2670 2669 1 
1077 2670 2674 3 
1078 2192 3186 3 
1079 2192 2191 1 
1080 2192 2674 3 
1081 3186 2670 3 
1082 3186 3185 1 
1083 3912 4172 3 
1084 3912 3911 1 
1085 4172 3396 3 
1086 4172 4171 1 
1087 3396 3912 3 
1088 3396 3395 1 
1089 3164 3666 3 
1090 3164 3163 1 
1091 3164 3388 3 
1092 3906 3164 3 
1093 3906 3905 1 
1094 3388 3906 3 
1095 3388 3387 1 
1096 3388 3666 3 
1097 3156 3155 1 
1098 3666 3906 3 
1099 3666 3665 1 
1100 3656 3156 3 
1101 5618 4652 3 
1102 5618 5617 1 
1103 4652 5168 3 
1104 4652 4651 1 
1105 4894 4652 3 
1106 4894 4893 1 
1107 4894 5618 3 
1108 5168 4894 3 
1109 5168 5167 1 
1110 5168 5618 3 
1111 5940 5914 3 
1112 5940 5939 1 
1113 5406 5405 1 
1114 5419 5939 2 
1115 689 893 2 
1116 674 430 3 
1117 674 673 1 
1118 914 674 3 
1119 914 913 1 
1120 430 914 3 
1121 430 429 1 
1122 946 448 3 
1123 946 945 1 
1124 652 946 3 
1125 652 651 1 
1126 448 652 3 
1127 448 447 1 
1128 673 951 2 
1129 425 447 2 
1130 684 688 3 
1131 684 683 1 
1132 1419 1425 2 
1133 1447 1693 2 
1134 1435 1436 1 
1135 1435 2447 2 
1136 1687 1949 2 
1137 3166 2444 3 
1138 3166 3165 1 
1139 2444 2950 3 
1140 2444 2443 1 
1141 2663 2683 2 
1142 2197 2691 2 
1143 2687 2707 2 
1144 4167 4457 2 
1145 4166 3430 3 
1146 4166 4165 1 
1147 5162 5940 3 
1148 5162 5161 1 
1149 5162 5440 3 
1150 5440 5940 3 
1151 5440 5439 1 
1152 5440 5914 3 
1153 5914 5162 3 
1154 5914 5913 1 
1155 5183 5453 2 
1156 5184 5183 1 
1157 670 1178 3 
1158 670 669 1 
1159 894 670 3 
1160 894 893 1 
1161 693 1177 2 
1162 669 945 2 
1163 193 6195 2 
1164 405 913 2 
1165 427 428 1 
1166 6195 6196 1 
1167 196 194 3 
1168 679 6175 2 
1169 658 684 3 
1170 658 657 1 
1171 459 935 2 
1172 688 658 3 
1173 688 687 1 
1174 682 672 3 
1175 682 681 1 
1176 682 710 3 
1177 936 682 3 
1178 936 935 1 
1179 672 936 3 
1180 672 671 1 
1181 672 710 3 
1182 1939 2205 2 
1183 1966 1965 1 
1184 2172 1966 3 
1185 1950 2440 3 
1186 1950 1949 1 
1187 2442 1950 3 
1188 2442 2440 3 
1189 2442 2441 1 
1190 1947 1948 1 
1191 2688 2722 3 
1192 2688 2687 1 
1193 2900 2899 1 
1194 2899 3673 2 
1195 3402 2900 3 
1196 4220 4672 3 
1197 4672 4671 1 
1198 3460 3459 1 
1199 3976 3460 3 
1200 4681 4715 2 
1201 4682 4212 3 
1202 4682 4681 1 
1203 4682 4694 3 
1204 4694 3686 3 
1205 4694 4693 1 
1206 4212 4694 3 
1207 4212 4211 1 
1208 3686 4212 3 
1209 3686 3685 1 
1210 3686 4682 3 
1211 3929 4667 2 
1212 4444 4458 3 
1213 4458 4457 1 
1214 3930 4166 3 
1215 3930 3929 1 
1216 3430 3930 3 
1217 3430 3429 1 
1218 3429 3693 2 
1219 3685 4717 2 
1220 4199 4933 2 
1221 5458 5224 3 
1222 5224 5223 1 
1223 424 423 1 
1224 6218 424 3 
1225 6217 6218 1 
1226 5426 5184 3 
1227 194 193 1 
1228 428 694 3 
1229 694 693 1 
1230 5993 5994 1 
1231 432 454 3 
1232 432 431 1 
1233 454 6192 3 
1234 454 453 1 
1235 6198 5960 3 
1236 6198 6197 1 
1237 450 6198 3 
1238 450 449 1 
1239 5960 450 3 
1240 5960 5959 1 
1241 5994 730 3 
1242 6192 432 3 
1243 6192 6191 1 
1244 697 698 1 
1245 433 697 2 
1246 666 434 3 
1247 666 665 1 
1248 680 666 3 
1249 680 679 1 
1250 680 1186 3 
1251 1186 666 3 
1252 1186 1185 1 
1253 434 680 3 
1254 434 433 1 
1255 434 1186 3 
1256 687 1179 2 
1257 710 936 3 
1258 710 709 1 
1259 709 1461 2 
1260 1213 1719 2 
1261 2205 2206 1 
1262 1666 1454 3 
1263 1720 1719 1 
1264 1720 2206 3 
1265 1964 1720 3 
1266 1964 1963 1 
1267 1964 2206 3 
1268 1665 1666 1 
1269 2171 2172 1 
1270 1663 1664 1 
1271 1663 2721 2 
1272 3450 3958 3 
1273 3450 3449 1 
1274 3958 3946 3 
1275 3958 3957 1 
1276 3946 3450 3 
1277 3946 3945 1 
1278 2948 3958 3 
1279 2948 2947 1 
1280 2948 3450 3 
1281 2948 3946 3 
1282 3967 3977 2 
1283 3975 3976 1 
1284 3945 4671 2 
1285 3459 3957 2 
1286 3701 3975 2 
1287 4219 4693 2 
1288 4219 4220 1 
1289 3738 3737 1 
1290 3974 3738 3 
1291 3702 3701 1 
1292 3961 4435 2 
1293 3422 3702 3 
1294 4211 4465 2 
1295 4425 4955 2 
1296 3707 3708 1 
1297 3707 4443 2 
1298 4443 4444 1 
1299 5202 4710 3 
1300 4448 4210 3 
1301 4448 4447 1 
1302 4448 5442 3 
1303 4698 4448 3 
1304 4698 4697 1 
1305 4698 5442 3 
1306 5442 4210 3 
1307 5442 5441 1 
1308 4210 4698 3 
1309 4210 4209 1 
1310 4710 4709 1 
1311 5457 5458 1 
1312 4697 5457 2 
1313 4447 5217 2 
1314 4469 4470 1 
1315 4469 4703 2 
1316 5954 4980 3 
1317 5954 5953 1 
1318 423 5933 2 
1319 465 6239 2 
1320 4704 4980 3 
1321 4704 4703 1 
1322 4704 5954 3 
1323 197 449 2 
1324 730 729 1 
1325 453 923 2 
1326 923 924 1 
1327 221 222 1 
1328 221 431 2 
1329 920 919 1 
1330 924 920 3 
1331 200 698 3 
1332 200 716 3 
1333 200 924 3 
1334 6220 6219 1 
1335 716 920 3 
1336 716 6220 3 
1337 238 237 1 
1338 228 6220 3 
1339 698 924 3 
1340 698 920 3 
1341 950 238 3 
1342 178 177 1 
1343 222 178 3 
1344 457 6199 2 
1345 1487 1495 2 
1346 699 1215 2 
1347 1457 1479 2 
1348 237 1493 2 
1349 1422 1496 3 
1350 1422 1421 1 
1351 1422 1480 3 
1352 1422 1462 3 
1353 1496 1480 3 
1354 1496 1495 1 
1355 1462 1496 3 
1356 1462 1461 1 
1357 1480 1462 3 
1358 1480 1479 1 
1359 1217 1941 2 
1360 1942 1964 3 
1361 1942 1941 1 
1362 1942 2206 3 
1363 3968 3967 1 
1364 3926 3968 3 
1365 2704 3424 3 
1366 2704 2703 1 
1367 3226 2704 3 
1368 3226 3225 1 
1369 3226 3424 3 
1370 2946 2704 3 
1371 2946 2945 1 
1372 2946 3226 3 
1373 3424 2946 3 
1374 3424 3423 1 
1375 2445 2446 1 
1376 2445 3207 2 
1377 3421 3422 1 
1378 3421 3711 2 
1379 3933 3959 2 
1380 3762 4464 3 
1381 3762 3761 1 
1382 3466 3762 3 
1383 3466 3465 1 
1384 4464 3466 3 
1385 4464 4463 1 
1386 3943 3944 1 
1387 3934 4956 3 
1388 3934 3933 1 
1389 4209 5451 2 
1390 3761 5441 2 
1391 4988 4438 3 
1392 4988 4987 1 
1393 4474 4206 3 
1394 4474 4473 1 
1395 4474 4988 3 
1396 4438 4206 3 
1397 4438 4437 1 
1398 4438 4474 3 
1399 4206 4988 3 
1400 4206 4205 1 
1401 5228 5236 3 
1402 5228 5227 1 
1403 5236 4454 3 
1404 5236 5235 1 
1405 5463 5937 2 
1406 4981 5203 2 
1407 466 5464 3 
1408 466 465 1 
1409 232 466 3 
1410 232 231 1 
1411 5464 232 3 
1412 5464 5463 1 
1413 209 729 2 
1414 463 971 2 
1415 971 972 1 
1416 199 200 1 
1417 199 1443 2 
1418 949 950 1 
1419 1491 1735 2 
1420 2730 2236 3 
1421 2730 2729 1 
1422 2236 1736 3 
1423 2236 2235 1 
1424 1736 2730 3 
1425 1736 1735 1 
1426 1486 2236 3 
1427 1486 1485 1 
1428 1486 2730 3 
1429 1486 1736 3 
1430 1991 1992 1 
1431 1477 1991 2 
1432 2461 2462 1 
1433 2215 2705 2 
1434 1237 2471 2 
1435 2216 1982 3 
1436 2216 2215 1 
1437 2216 2230 3 
1438 2230 2462 3 
1439 2965 2969 2 
1440 2460 2700 3 
1441 2460 2459 1 
1442 2190 3984 3 
1443 2190 2450 3 
1444 2190 2189 1 
1445 3208 2190 3 
1446 3208 3984 3 
1447 3208 3207 1 
1448 3472 2460 3 
1449 3472 3471 1 
1450 3984 2450 3 
1451 3984 3983 1 
1452 2450 3208 3 
1453 2450 2449 1 
1454 2700 3472 3 
1455 2700 2699 1 
1456 3925 3926 1 
1457 3265 3925 2 
1458 3473 3474 1 
1459 3473 4193 2 
1460 3714 3713 1 
1461 3944 3714 3 
1462 4194 4198 3 
1463 4194 4193 1 
1464 4194 4208 3 
1465 3960 4194 3 
1466 3960 3959 1 
1467 3960 4208 3 
1468 4198 3960 3 
1469 4198 4197 1 
1470 4208 4198 3 
1471 4208 4207 1 
1472 4260 4480 3 
1473 4260 4259 1 
1474 4480 4970 3 
1475 4480 4479 1 
1476 3774 4260 3 
1477 3774 3773 1 
1478 3774 4970 3 
1479 3774 4480 3 
1480 5227 5235 2 
1481 4970 4260 3 
1482 4970 4969 1 
1483 4969 4987 2 
1484 4479 4713 2 
1485 4508 4507 1 
1486 4982 4992 3 
1487 4982 4981 1 
1488 4714 4982 3 
1489 4714 4713 1 
1490 4992 4714 3 
1491 4992 4991 1 
1492 4231 4751 2 
1493 5245 5246 1 
1494 5245 5961 2 
1495 5246 5248 3 
1496 231 5973 2 
1497 5181 5182 1 
1498 5477 5478 1 
1499 5477 5719 2 
1500 5182 4960 3 
1501 504 6238 3 
1502 504 503 1 
1503 438 6238 3 
1504 438 437 1 
1505 438 504 3 
1506 438 6250 3 
1507 6250 504 3 
1508 6250 6249 1 
1509 6238 6250 3 
1510 6238 6237 1 
1511 4960 4959 1 
1512 1004 750 3 
1513 1004 1003 1 
1514 987 988 1 
1515 987 6229 2 
1516 750 734 3 
1517 750 749 1 
1518 260 259 1 
1519 260 476 3 
1520 972 1004 3 
1521 254 5982 3 
1522 254 253 1 
1523 254 6026 3 
1524 508 254 3 
1525 508 507 1 
1526 508 6026 3 
1527 988 260 3 
1528 5982 508 3 
1529 5982 5981 1 
1530 734 1004 3 
1531 734 733 1 
1532 734 972 3 
1533 259 753 2 
1534 731 749 2 
1535 753 754 1 
1536 493 969 2 
1537 1247 1475 2 
1538 1475 1476 1 
1539 2246 1492 3 
1540 2246 2245 1 
1541 1492 1254 3 
1542 1492 1491 1 
1543 1254 1232 3 
1544 1254 1253 1 
1545 1254 2246 3 
1546 1232 1492 3 
1547 1232 1231 1 
1548 1232 2246 3 
1549 1253 1981 2 
1550 736 1224 3 
1551 736 735 1 
1552 1460 2216 3 
1553 1460 1459 1 
1554 1460 2462 3 
1555 1982 1460 3 
1556 1982 1981 1 
1557 1982 2462 3 
1558 1473 1474 1 
1559 1465 1466 1 
1560 1465 1473 2 
1561 1466 1238 3 
1562 1238 1237 1 
1563 2752 2260 3 
1564 2990 2966 3 
1565 2990 2989 1 
1566 2232 2460 3 
1567 2232 2231 1 
1568 2232 2700 3 
1569 2232 3472 3 
1570 3979 3983 2 
1571 3980 3979 1 
1572 3474 3980 3 
1573 3491 3492 1 
1574 3491 4485 2 
1575 3773 4747 2 
1576 4259 4721 2 
1577 5252 5251 1 
1578 4733 4734 1 
1579 4733 5025 2 
1580 4734 5252 3 
1581 4990 5222 3 
1582 4990 4989 1 
1583 4501 4991 2 
1584 4284 5222 3 
1585 4284 4283 1 
1586 4284 4722 3 
1587 4284 4990 3 
1588 4722 4990 3 
1589 4722 4721 1 
1590 5222 4722 3 
1591 5222 5221 1 
1592 13 229 2 
1593 5487 5991 2 
1594 5974 226 3 
1595 5974 5973 1 
1596 236 242 3 
1597 236 5974 3 
1598 236 235 1 
1599 242 5974 3 
1600 242 226 3 
1601 242 241 1 
1602 226 236 3 
1603 226 225 1 
1604 225 6025 2 
1605 6026 5982 3 
1606 6026 6025 1 
1607 476 972 3 
1608 476 750 3 
1609 475 476 1 
1610 247 5753 2 
1611 5 733 2 
1612 6 5 1 
1613 1240 6 3 
1614 268 1024 3 
1615 1224 1730 3 
1616 1224 1223 1 
1617 1730 736 3 
1618 1730 1729 1 
1619 1723 2253 2 
1620 3812 3016 3 
1621 3812 3811 1 
1622 3798 3812 3 
1623 3798 3797 1 
1624 3016 3798 3 
1625 3016 3015 1 
1626 3015 3525 2 
1627 4002 4462 3 
1628 4002 4001 1 
1629 4002 4530 3 
1630 4002 4748 3 
1631 3766 3744 3 
1632 3766 3765 1 
1633 3766 4290 3 
1634 4462 4748 3 
1635 4462 4461 1 
1636 4748 4530 3 
1637 4748 4747 1 
1638 4530 4462 3 
1639 4530 4529 1 
1640 4744 3766 3 
1641 4744 4743 1 
1642 4290 4744 3 
1643 4290 4289 1 
1644 3744 4744 3 
1645 3744 3743 1 
1646 3744 4290 3 
1647 4235 4236 1 
1648 4235 4461 2 
1649 4757 4758 1 
1650 4223 4224 1 
1651 4223 4757 2 
1652 5763 6245 2 
1653 14 6228 3 
1654 14 13 1 
1655 14 6226 3 
1656 6228 5480 3 
1657 6228 6227 1 
1658 6226 5480 3 
1659 6226 6225 1 
1660 6226 6228 3 
1661 5480 14 3 
1662 5480 5479 1 
1663 30 6016 3 
1664 30 29 1 
1665 30 5516 3 
1666 520 30 3 
1667 520 519 1 
1668 520 5516 3 
1669 6016 520 3 
1670 6016 6015 1 
1671 487 6041 2 
1672 5471 6065 2 
1673 6065 6066 1 
1674 6008 6224 3 
1675 6008 6007 1 
1676 250 6008 3 
1677 250 249 1 
1678 250 1006 3 
1679 1006 6224 3 
1680 1006 1005 1 
1681 1006 6008 3 
1682 45 5999 2 
1683 45 46 1 
1684 6224 250 3 
1685 6224 6223 1 
1686 525 526 1 
1687 473 525 2 
1688 46 5730 3 
1689 6042 6041 1 
1690 490 5754 3 
1691 490 489 1 
1692 10 6042 3 
1693 5518 490 3 
1694 5518 5517 1 
1695 1276 1030 3 
1696 1276 1275 1 
1697 5754 5518 3 
1698 5754 5753 1 
1699 1011 1483 2 
1700 515 516 1 
1701 515 1263 2 
1702 269 270 1 
1703 781 1523 2 
1704 502 1022 3 
1705 502 516 3 
1706 764 310 3 
1707 233 269 2 
1708 782 1276 3 
1709 782 781 1 
1710 1021 1022 1 
1711 1013 1241 2 
1712 485 1239 2 
1713 1245 1246 1 
1714 983 1245 2 
1715 509 1243 2 
1716 1770 1270 3 
1717 1270 1269 1 
1718 1780 1034 3 
1719 1780 1779 1 
1720 1746 1034 3 
1721 1746 1745 1 
1722 1746 1780 3 
1723 1746 2020 3 
1724 1769 1770 1 
1725 1279 2019 2 
1726 1744 2024 3 
1727 2024 2023 1 
1728 1743 1744 1 
1729 2011 2741 2 
1730 2741 2742 1 
1731 2280 2279 1 
1732 2280 2492 3 
1733 2280 2786 3 
1734 2254 2280 3 
1735 2254 2786 3 
1736 2754 2276 3 
1737 2754 2753 1 
1738 2276 2018 3 
1739 2276 2275 1 
1740 2508 2276 3 
1741 2508 2507 1 
1742 2508 2754 3 
1743 2018 2508 3 
1744 2018 2017 1 
1745 2018 2754 3 
1746 2492 2506 3 
1747 2507 2755 2 
1748 3017 3018 1 
1749 2481 2482 1 
1750 2481 3017 2 
1751 2972 2242 3 
1752 2972 2971 1 