ITEM: TIMESTEP
22880
ITEM: NUMBER OF ENTRIES
5306
ITEM: BOX BOUNDS pp pp ff
0.0000000000000000e+00 7.2168784000000002e+01
0.0000000000000000e+00 7.2168784000000002e+01
0.0000000000000000e+00 1.2000000000000000e+01
ITEM: ENTRIES index c_1[1] c_1[2] c_1[3]
1 6010 6009 1 
2 6010 5766 3 
3 5766 5765 1 
4 5766 6242 3 
5 244 243 1 
6 269 270 1 
7 525 526 1 
8 6017 6018 1 
9 233 269 2 
10 1011 1012 1 
11 1011 1483 2 
12 1483 1484 1 
13 1765 1766 1 
14 2273 2274 1 
15 2489 2490 1 
16 2495 2496 1 
17 2535 2536 1 
18 2981 2982 1 
19 3255 3256 1 
20 2992 2778 3 
21 2992 2991 1 
22 2992 3002 3 
23 2778 3006 3 
24 2778 2777 1 
25 3006 2992 3 
26 3006 3005 1 
27 3002 2778 3 
28 3002 3001 1 
29 3002 3006 3 
30 3467 3468 1 
31 3986 3510 3 
32 3986 3985 1 
33 3510 3010 3 
34 3510 3509 1 
35 3010 3986 3 
36 3010 3009 1 
37 3526 3525 1 
38 3512 3526 3 
39 3757 3758 1 
40 3303 3304 1 
41 3763 3764 1 
42 3281 3282 1 
43 3761 3762 1 
44 4500 4276 3 
45 4500 4499 1 
46 4275 5525 2 
47 4741 4742 1 
48 4515 4741 2 
49 4493 4494 1 
50 4493 4735 2 
51 4735 4736 1 
52 5525 5526 1 
53 6245 6246 1 
54 5017 5018 1 
55 5017 5239 2 
56 4755 5501 2 
57 5256 5255 1 
58 5742 5256 3 
59 6003 6004 1 
60 6008 6007 1 
61 6224 6008 3 
62 5741 5742 1 
63 6231 6232 1 
64 6002 244 3 
65 247 5753 2 
66 6001 6002 1 
67 6223 6224 1 
68 6242 6010 3 
69 6241 6242 1 
70 6022 248 3 
71 6022 6021 1 
72 257 258 1 
73 257 6241 2 
74 248 12 3 
75 248 247 1 
76 12 34 3 
77 12 11 1 
78 12 6022 3 
79 34 248 3 
80 34 33 1 
81 34 6022 3 
82 274 273 1 
83 274 6010 3 
84 512 511 1 
85 512 274 3 
86 512 5766 3 
87 501 502 1 
88 33 501 2 
89 271 272 1 
90 9 10 1 
91 270 522 3 
92 270 768 3 
93 270 526 3 
94 526 522 3 
95 526 1022 3 
96 768 1022 3 
97 522 521 1 
98 522 768 3 
99 515 516 1 
100 1020 1002 3 
101 1020 1019 1 
102 1002 536 3 
103 1002 1001 1 
104 536 1020 3 
105 536 535 1 
106 1018 1040 3 
107 1018 1017 1 
108 1018 1534 3 
109 1534 1274 3 
110 1534 1533 1 
111 1274 1018 3 
112 1274 1273 1 
113 1040 1274 3 
114 1040 1039 1 
115 1040 1534 3 
116 1767 1768 1 
117 2762 1504 3 
118 2762 2761 1 
119 1504 2252 3 
120 1504 1503 1 
121 2252 2732 3 
122 2252 2251 1 
123 2252 2762 3 
124 2732 1504 3 
125 2732 2731 1 
126 2732 2762 3 
127 2531 2731 2 
128 2772 2530 3 
129 2772 2771 1 
130 3495 3496 1 
131 3535 3536 1 
132 3015 3016 1 
133 3015 3525 2 
134 3511 3512 1 
135 3539 3540 1 
136 3503 3504 1 
137 3253 3254 1 
138 4048 4500 3 
139 4048 4047 1 
140 4276 4048 3 
141 4276 4275 1 
142 5002 5001 1 
143 4746 5002 3 
144 5289 5290 1 
145 5013 5014 1 
146 4745 4746 1 
147 4745 5021 2 
148 6233 6234 1 
149 273 541 2 
150 11 6051 2 
151 6051 6052 1 
152 6036 6035 1 
153 23 24 1 
154 539 540 1 
155 778 777 1 
156 1047 1048 1 
157 295 296 1 
158 295 815 2 
159 1042 778 3 
160 771 772 1 
161 771 1533 2 
162 1515 1516 1 
163 2313 2775 2 
164 2313 2314 1 
165 2512 2530 3 
166 2512 2522 3 
167 2532 2772 3 
168 2532 2531 1 
169 2530 2532 3 
170 2530 2529 1 
171 2522 2532 3 
172 2522 2772 3 
173 3263 3535 2 
174 3272 3034 3 
175 3272 3271 1 
176 3272 3538 3 
177 3264 3538 3 
178 3264 3263 1 
179 3264 3272 3 
180 3538 3034 3 
181 3538 3537 1 
182 3290 2784 3 
183 3034 3264 3 
184 3034 3033 1 
185 3241 3242 1 
186 3790 3534 3 
187 3790 3789 1 
188 3534 3316 3 
189 3534 3533 1 
190 2524 3534 3 
191 2524 2523 1 
192 2524 3790 3 
193 3311 3312 1 
194 3311 3547 2 
195 3269 3270 1 
196 3540 4524 3 
197 4524 4523 1 
198 3797 3798 1 
199 4031 4032 1 
200 5319 5320 1 
201 524 6036 3 
202 6045 6046 1 
203 5787 5788 1 
204 5787 6045 2 
205 280 532 3 
206 523 524 1 
207 6044 538 3 
208 6044 6043 1 
209 532 531 1 
210 322 6044 3 
211 322 321 1 
212 815 816 1 
213 2062 1528 3 
214 2062 2061 1 
215 1284 2062 3 
216 1284 1283 1 
217 1521 1522 1 
218 1031 1032 1 
219 1283 1521 2 
220 1281 1541 2 
221 1541 1542 1 
222 2539 2540 1 
223 2564 2776 3 
224 2564 2563 1 
225 2044 2564 3 
226 2044 2043 1 
227 2776 2044 3 
228 2776 2775 1 
229 1787 1788 1 
230 2563 2817 2 
231 2817 2818 1 
232 2519 2520 1 
233 2301 2302 1 
234 3041 3042 1 
235 2571 2572 1 
236 2327 2328 1 
237 3292 3291 1 
238 3310 3292 3 
239 3548 3284 3 
240 3548 3547 1 
241 3309 3310 1 
242 3031 3032 1 
243 3031 3309 2 
244 3284 3048 3 
245 3284 3283 1 
246 3048 3548 3 
247 3048 3047 1 
248 3289 3290 1 
249 3316 2524 3 
250 3316 3315 1 
251 3316 3790 3 
252 4301 4302 1 
253 4302 5292 3 
254 5292 5291 1 
255 5823 5824 1 
256 5792 5566 3 
257 5792 5791 1 
258 5798 5797 1 
259 5532 5531 1 
260 5320 5532 3 
261 35 6035 2 
262 6029 6030 1 
263 5782 36 3 
264 538 322 3 
265 538 537 1 
266 545 553 2 
267 1289 1290 1 
268 1792 1791 1 
269 2308 1792 3 
270 1333 1334 1 
271 1302 1301 1 
272 1572 1302 3 
273 1781 1782 1 
274 1571 1572 1 
275 1571 1781 2 
276 2053 2054 1 
277 1795 1796 1 
278 1795 2053 2 
279 1798 1797 1 
280 1824 1800 3 
281 1824 1823 1 
282 2292 1824 3 
283 2292 2291 1 
284 1800 2292 3 
285 1800 1799 1 
286 1800 2022 3 
287 1562 1798 3 
288 2022 1824 3 
289 2022 2021 1 
290 2022 2292 3 
291 2801 2802 1 
292 2551 2552 1 
293 3280 2822 3 
294 3055 3056 1 
295 2822 2821 1 
296 2065 2066 1 
297 3776 3775 1 
298 3332 3776 3 
299 4815 4816 1 
300 4551 4552 1 
301 4063 4064 1 
302 5049 5050 1 
303 4783 4784 1 
304 4767 4768 1 
305 4767 4783 2 
306 5073 5074 1 
307 5048 5792 3 
308 5048 5047 1 
309 5566 5048 3 
310 5566 5565 1 
311 4303 4304 1 
312 4803 4804 1 
313 4813 5565 2 
314 4574 5798 3 
315 5551 5552 1 
316 5813 5814 1 
317 4573 4574 1 
318 6061 6062 1 
319 5779 5780 1 
320 294 52 3 
321 294 293 1 
322 294 5548 3 
323 52 6064 3 
324 52 51 1 
325 52 5548 3 
326 5548 6064 3 
327 5548 5547 1 
328 6064 294 3 
329 6064 6063 1 
330 798 797 1 
331 314 798 3 
332 589 590 1 
333 822 821 1 
334 41 42 1 
335 796 800 3 
336 71 72 1 
337 1074 828 3 
338 1074 1073 1 
339 1532 1570 3 
340 1532 1531 1 
341 1532 2542 3 
342 1561 1562 1 
343 2291 2353 2 
344 2353 2354 1 
345 3279 3280 1 
346 3043 3044 1 
347 3043 3327 2 
348 2821 3317 2 
349 3051 3052 1 
350 3317 3318 1 
351 3305 3581 2 
352 3574 4066 3 
353 3574 3573 1 
354 3306 3558 3 
355 3306 3305 1 
356 3306 3574 3 
357 3558 4066 3 
358 3558 3557 1 
359 3558 3574 3 
360 4310 4309 1 
361 4325 4326 1 
362 4059 4060 1 
363 4059 4065 2 
364 4073 4074 1 
365 3556 3555 1 
366 5071 5072 1 
367 4804 5296 3 
368 5296 5295 1 
369 5333 5334 1 
370 5816 5815 1 
371 5315 5316 1 
372 5819 5820 1 
373 5819 6083 2 
374 5563 5564 1 
375 5563 5811 2 
376 5801 5802 1 
377 74 5816 3 
378 5825 5826 1 
379 5825 6063 2 
380 5821 5822 1 
381 5838 5837 1 
382 5822 5838 3 
383 77 78 1 
384 336 822 3 
385 823 824 1 
386 69 70 1 
387 69 589 2 
388 819 820 1 
389 828 1832 3 
390 828 827 1 
391 1832 1074 3 
392 1832 1831 1 
393 1071 1072 1 
394 1073 1339 2 
395 2077 2078 1 
396 847 848 1 
397 847 2077 2 
398 2816 2082 3 
399 2082 2081 1 
400 2581 2582 1 
401 2354 2582 3 
402 2354 3038 3 
403 2824 3038 3 
404 3038 3037 1 
405 2823 2824 1 
406 2835 2836 1 
407 3561 3562 1 
408 3061 3062 1 
409 3323 3324 1 
410 3826 3825 1 
411 3793 3794 1 
412 3302 3826 3 
413 4066 3306 3 
414 4066 4065 1 
415 3825 3853 2 
416 4535 4536 1 
417 4587 4588 1 
418 3572 4072 3 
419 3572 3571 1 
420 4322 3572 3 
421 4322 4321 1 
422 4072 4322 3 
423 4072 4071 1 
424 4074 3802 3 
425 3802 3801 1 
426 3591 3592 1 
427 4321 4351 2 
428 4323 4324 1 
429 4836 4835 1 
430 5051 5052 1 
431 5051 5573 2 
432 5325 5326 1 
433 5573 5574 1 
434 5081 5082 1 
435 6083 6084 1 
436 5327 5328 1 
437 91 5327 2 
438 6079 6080 1 
439 6071 6072 1 
440 61 62 1 
441 831 832 1 
442 343 831 2 
443 832 586 3 
444 335 336 1 
445 586 585 1 
446 93 94 1 
447 93 565 2 
448 565 566 1 
449 1341 1342 1 
450 1341 1831 2 
451 829 830 1 
452 1077 1078 1 
453 1077 1367 2 
454 1367 1368 1 
455 2559 2560 1 
456 2559 2835 2 
457 2585 2586 1 
458 2349 2585 2 
459 2844 2562 3 
460 2844 2843 1 
461 2844 3074 3 
462 3607 3608 1 
463 3607 3813 2 
464 3813 3814 1 
465 2584 3360 3 
466 2335 2336 1 
467 3360 3359 1 
468 3863 3864 1 
469 5085 5086 1 
470 4577 4578 1 
471 4335 4336 1 
472 4825 4826 1 
473 3845 3846 1 
474 5077 5078 1 
475 5065 5066 1 
476 5098 4836 3 
477 5561 5562 1 
478 6103 6104 1 
479 5359 5360 1 
480 6095 6096 1 
481 103 104 1 
482 344 592 3 
483 344 343 1 
484 592 350 3 
485 592 591 1 
486 581 582 1 
487 843 844 1 
488 1091 1103 2 
489 1348 1584 3 
490 1584 1583 1 
491 1103 1104 1 
492 596 1092 3 
493 1092 1091 1 
494 1351 1352 1 
495 2364 2864 3 
496 2364 2363 1 
497 2364 2894 3 
498 2864 2894 3 
499 2864 2863 1 
500 3084 2826 3 
501 3084 3083 1 
502 4108 4107 1 
503 3620 4108 3 
504 3341 3342 1 
505 3087 3088 1 
506 3619 3620 1 
507 4337 4338 1 
508 3593 3863 2 
509 3088 2842 3 
510 3124 3884 3 
511 2842 2841 1 
512 3833 3834 1 
513 3833 4571 2 
514 4571 4572 1 
515 5079 5345 2 
516 5079 5080 1 
517 5345 5346 1 
518 4599 4600 1 
519 4599 4875 2 
520 4339 4340 1 
521 5102 5094 3 
522 105 4581 2 
523 5611 5612 1 
524 371 372 1 
525 6102 6101 1 
526 102 342 3 
527 102 101 1 
528 342 6086 3 
529 342 341 1 
530 6086 102 3 
531 6086 6085 1 
532 591 875 2 
533 1401 1402 1 
534 1360 1112 3 
535 621 622 1 
536 1853 1854 1 
537 1872 1346 3 
538 1872 1871 1 
539 2106 1872 3 
540 2106 2105 1 
541 2106 2334 3 
542 1858 2616 3 
543 2616 2615 1 
544 1861 1862 1 
545 2894 2342 3 
546 2894 2893 1 
547 2342 2864 3 
548 2342 2341 1 
549 2342 2364 3 
550 3337 3338 1 
551 3111 3112 1 
552 3123 3124 1 
553 3884 3883 1 
554 3366 3594 3 
555 3105 3106 1 
556 3594 3593 1 
557 3375 3883 2 
558 3861 3862 1 
559 3371 3372 1 
560 4083 4084 1 
561 4370 4104 3 
562 3851 3852 1 
563 5354 5353 1 
564 4592 5354 3 
565 4593 4594 1 
566 4873 5353 2 
567 4874 4586 3 
568 4874 4873 1 
569 4874 5134 3 
570 4371 4372 1 
571 4846 4874 3 
572 4846 4845 1 
573 4586 4846 3 
574 4586 4585 1 
575 4586 5134 3 
576 5601 5602 1 
577 5601 5861 2 
578 5347 5348 1 
579 5856 6102 3 
580 325 326 1 
581 325 6101 2 
582 5881 6109 2 
583 6109 6110 1 
584 361 362 1 
585 121 122 1 
586 6144 5616 3 
587 5616 5615 1 
588 139 140 1 
589 653 654 1 
590 653 1147 2 
591 616 864 3 
592 1147 1148 1 
593 1356 1106 3 
594 1106 1105 1 
595 1614 1613 1 
596 634 1614 3 
597 1134 1136 3 
598 1393 1394 1 
599 1875 1876 1 
600 2362 1642 3 
601 2115 2116 1 
602 1835 2115 2 
603 2361 2362 1 
604 2605 2606 1 
605 2131 2132 1 
606 2131 2135 2 
607 2619 2620 1 
608 2619 2853 2 
609 2853 2854 1 
610 3625 3626 1 
611 3909 3910 1 
612 3624 3623 1 
613 4369 4370 1 
614 4103 4115 2 
615 4115 4116 1 
616 3871 3872 1 
617 3871 4611 2 
618 5134 4846 3 
619 5134 5133 1 
620 4629 4630 1 
621 4629 5635 2 
622 5635 5636 1 
623 153 154 1 
624 6110 114 3 
625 114 113 1 
626 615 616 1 
627 142 141 1 
628 1380 142 3 
629 1609 1610 1 
630 633 634 1 
631 1136 1135 1 
632 1624 1898 3 
633 1873 1874 1 
634 1385 1386 1 
635 1385 1881 2 
636 2113 2114 1 
637 2625 2626 1 
638 3179 3180 1 
639 3898 2866 3 
640 3897 3898 1 
641 2866 2865 1 
642 2877 2878 1 
643 2877 3897 2 
644 3143 3641 2 
645 3389 3390 1 
646 3613 4633 2 
647 3614 3613 1 
648 4116 3614 3 
649 4397 4398 1 
650 5122 5121 1 
651 5356 5122 3 
652 5916 5624 3 
653 5631 5632 1 
654 5395 5396 1 
655 5395 5631 2 
656 5127 5128 1 
657 5127 5361 2 
658 5624 5623 1 
659 5877 5878 1 
660 5361 5362 1 
661 5625 5626 1 
662 5597 5598 1 
663 5871 5872 1 
664 6121 6122 1 
665 141 143 2 
666 613 614 1 
667 1898 1897 1 
668 1143 1144 1 
669 1381 1382 1 
670 1659 1660 1 
671 2130 1644 3 
672 1882 2174 3 
673 1882 1881 1 
674 1882 2374 3 
675 1882 2152 3 
676 2152 2374 3 
677 2152 2151 1 
678 2374 2174 3 
679 2374 2373 1 
680 2174 2152 3 
681 2174 2173 1 
682 2648 2662 3 
683 2662 2661 1 
684 2647 2648 1 
685 3667 3668 1 
686 3161 3162 1 
687 2865 3901 2 
688 4396 4634 3 
689 4634 4633 1 
690 3390 4412 3 
691 4412 4411 1 
692 3923 3924 1 
693 3378 4134 3 
694 4134 4133 1 
695 4643 4644 1 
696 4155 4156 1 
697 4155 4643 2 
698 4137 4138 1 
699 5151 5152 1 
700 5383 5384 1 
701 5926 5642 3 
702 5642 5641 1 
703 5665 5666 1 
704 132 902 3 
705 132 131 1 
706 902 384 3 
707 902 901 1 
708 384 132 3 
709 384 383 1 
710 144 6148 3 
711 144 143 1 
712 6148 416 3 
713 6148 6147 1 
714 383 1399 2 
715 1653 1654 1 
716 925 926 1 
717 1415 1416 1 
718 1644 1643 1 
719 1907 1908 1 
720 1907 2373 2 
721 3649 3650 1 
722 2871 2872 1 
723 2871 2907 2 
724 2933 2934 1 
725 2656 2655 1 
726 2934 2656 3 
727 2907 2908 1 
728 3173 3174 1 
729 3163 3173 2 
730 3154 2654 3 
731 3154 3153 1 
732 2642 2654 3 
733 2642 2641 1 
734 2642 3154 3 
735 2642 3152 3 
736 3899 3900 1 
737 3663 3664 1 
738 3663 3899 2 
739 3159 3907 2 
740 4421 4422 1 
741 3907 3908 1 
742 3915 3916 1 
743 3916 3678 3 
744 4923 4924 1 
745 4909 4910 1 
746 4922 4196 3 
747 4922 4948 3 
748 4877 4878 1 
749 4877 4931 2 
750 4626 4948 3 
751 5141 5142 1 
752 4663 4664 1 
753 5412 378 3 
754 5412 5411 1 
755 5412 6156 3 
756 112 378 3 
757 112 111 1 
758 112 5412 3 
759 6156 112 3 
760 6156 6155 1 
761 5883 5884 1 
762 6153 6154 1 
763 5411 6153 2 
764 181 182 1 
765 425 447 2 
766 1161 1162 1 
767 931 932 1 
768 185 186 1 
769 185 1161 2 
770 932 426 3 
771 422 421 1 
772 1165 1166 1 
773 175 176 1 
774 1673 1674 1 
775 1163 1164 1 
776 2414 2184 3 
777 2414 2413 1 
778 2184 1672 3 
779 2184 2183 1 
780 1672 2414 3 
781 1672 1671 1 
782 2935 2936 1 
783 2915 2916 1 
784 2665 2666 1 
785 2665 2915 2 
786 2902 2684 3 
787 2684 2683 1 
788 3172 3674 3 
789 2655 3151 2 
790 3674 3673 1 
791 3679 3680 1 
792 2663 2664 1 
793 2663 2683 2 
794 3631 3632 1 
795 3631 3679 2 
796 3681 3682 1 
797 3678 3677 1 
798 4173 4174 1 
799 3404 3670 3 
800 3404 3403 1 
801 3914 3404 3 
802 3914 3913 1 
803 4428 4168 3 
804 4428 4427 1 
805 4674 4428 3 
806 4674 4673 1 
807 4399 4400 1 
808 4911 4912 1 
809 4921 4922 1 
810 4921 4947 2 
811 4415 4416 1 
812 4415 5163 2 
813 4947 4948 1 
814 4625 4626 1 
815 5164 5163 1 
816 5447 5448 1 
817 5185 5447 2 
818 378 6156 3 
819 378 377 1 
820 401 402 1 
821 656 422 3 
822 655 656 1 
823 955 956 1 
824 671 921 2 
825 1681 1682 1 
826 1155 1156 1 
827 1155 1913 2 
828 1913 1914 1 
829 1192 1191 1 
830 1412 1192 3 
831 1922 1894 3 
832 1894 1893 1 
833 1699 1700 1 
834 2901 2902 1 
835 3177 3178 1 
836 3201 3202 1 
837 3171 3172 1 
838 3411 3412 1 
839 3411 3671 2 
840 3475 3476 1 
841 4153 4154 1 
842 3913 4427 2 
843 4168 4674 3 
844 4168 4167 1 
845 4912 4700 3 
846 4700 4699 1 
847 5174 5446 3 
848 5174 5173 1 
849 5446 5186 3 
850 5446 5445 1 
851 5186 5174 3 
852 5186 5185 1 
853 5660 5956 3 
854 5660 5659 1 
855 5956 5444 3 
856 5956 5955 1 
857 5444 5660 3 
858 5444 5443 1 
859 5672 5670 3 
860 5670 5669 1 
861 5443 5691 2 
862 5671 5672 1 
863 5691 5692 1 
864 6203 6204 1 
865 943 944 1 
866 445 943 2 
867 695 696 1 
868 195 196 1 
869 460 702 3 
870 460 459 1 
871 460 692 3 
872 702 952 3 
873 702 701 1 
874 936 682 3 
875 936 935 1 
876 710 936 3 
877 710 709 1 
878 672 936 3 
879 672 671 1 
880 672 710 3 
881 682 672 3 
882 682 681 1 
883 682 710 3 
884 701 1173 2 
885 952 460 3 
886 952 951 1 
887 1215 1216 1 
888 699 700 1 
889 699 1215 2 
890 1197 1198 1 
891 1181 1191 2 
892 1703 1704 1 
893 1454 1453 1 
894 1666 1454 3 
895 1933 1934 1 
896 2185 2186 1 
897 2185 2193 2 
898 2687 2688 1 
899 2437 2438 1 
900 2431 2432 1 
901 2431 2437 2 
902 2194 2444 3 
903 2194 2193 1 
904 3401 3402 1 
905 3421 3422 1 
906 3421 3711 2 
907 3414 3204 3 
908 3414 3413 1 
909 3438 3414 3 
910 3438 3437 1 
911 3204 3438 3 
912 3204 3203 1 
913 3422 3702 3 
914 3702 3701 1 
915 4201 4202 1 
916 3927 3928 1 
917 3661 3927 2 
918 4961 4962 1 
919 4423 4424 1 
920 4423 4961 2 
921 5189 5190 1 
922 4687 4688 1 
923 4683 4945 2 
924 4945 4946 1 
925 5209 5210 1 
926 5675 5676 1 
927 6218 424 3 
928 424 423 1 
929 6217 6218 1 
930 423 5933 2 
931 6184 5918 3 
932 5918 5917 1 
933 451 452 1 
934 194 193 1 
935 196 194 3 
936 221 222 1 
937 6163 6164 1 
938 6213 6214 1 
939 216 472 3 
940 472 471 1 
941 705 6191 2 
942 705 706 1 
943 452 214 3 
944 214 213 1 
945 692 702 3 
946 692 691 1 
947 692 952 3 
948 1185 1186 1 
949 1444 1443 1 
950 700 1444 3 
951 1704 1172 3 
952 1172 1171 1 
953 1964 1720 3 
954 1964 1963 1 
955 1942 1964 3 
956 1942 1941 1 
957 2441 2442 1 
958 3221 3222 1 
959 2704 2946 3 
960 2946 2945 1 
961 3187 3188 1 
962 3187 3427 2 
963 3701 3975 2 
964 3975 3976 1 
965 4220 4672 3 
966 4672 4671 1 
967 4435 4436 1 
968 4219 4693 2 
969 4219 4220 1 
970 4693 4694 1 
971 3994 4472 3 
972 4471 4963 2 
973 4684 4216 3 
974 4684 4683 1 
975 4963 4964 1 
976 4216 4162 3 
977 4216 4215 1 
978 5457 5458 1 
979 5223 5224 1 
980 5451 5452 1 
981 5191 5192 1 
982 5415 5416 1 
983 5415 5673 2 
984 5206 5964 3 
985 5206 5205 1 
986 5421 5422 1 
987 5421 5677 2 
988 5967 6173 2 
989 5932 5966 3 
990 5932 5931 1 
991 5932 5934 3 
992 5966 204 3 
993 5966 5965 1 
994 204 5932 3 
995 204 203 1 
996 204 5934 3 
997 5934 5966 3 
998 5934 5933 1 
999 5968 5967 1 
1000 706 5968 3 
1001 191 192 1 
1002 191 483 2 
1003 471 661 2 
1004 183 691 2 
1005 184 183 1 
1006 1230 184 3 
1007 1951 1952 1 
1008 1452 998 3 
1009 998 997 1 
1010 1717 1718 1 
1011 1943 1944 1 
1012 2461 2462 1 
1013 2211 2461 2 
1014 2208 2207 1 
1015 2208 3432 3 
1016 2196 2208 3 
1017 2455 2456 1 
1018 1999 2000 1 
1019 1999 2973 2 
1020 2701 2702 1 
1021 2701 3443 2 
1022 3443 3444 1 
1023 3222 3456 3 
1024 2713 2714 1 
1025 3456 3455 1 
1026 3979 3983 2 
1027 3919 3920 1 
1028 4472 4471 1 
1029 4437 4438 1 
1030 4225 4226 1 
1031 4455 4456 1 
1032 4215 4437 2 
1033 5201 5202 1 
1034 4479 4713 2 
1035 5723 5724 1 
1036 6221 6222 1 
1037 5207 5208 1 
1038 203 5207 2 
1039 5463 5464 1 
1040 5463 5937 2 
1041 5441 5442 1 
1042 5937 5938 1 
1043 464 463 1 
1044 480 464 3 
1045 461 462 1 
1046 484 483 1 
1047 217 1951 2 
1048 1221 1222 1 
1049 1211 1212 1 
1050 1211 1221 2 
1051 1498 1994 3 
1052 1994 2240 3 
1053 1718 2240 3 
1054 2240 2239 1 
1055 2729 2730 1 
1056 1993 1994 1 
1057 1481 2239 2 
1058 2456 2212 3 
1059 1978 1956 3 
1060 1978 1977 1 
1061 1482 1978 3 
1062 1482 1481 1 
1063 1956 1482 3 
1064 1956 1955 1 
1065 2212 2211 1 
1066 1967 2455 2 
1067 2743 2744 1 
1068 2973 2974 1 
1069 2231 2232 1 
1070 2719 3231 2 
1071 2720 2719 1 
1072 2734 2720 3 
1073 3983 3984 1 
1074 3192 3232 3 
1075 3192 3191 1 
1076 3964 3192 3 
1077 3964 3963 1 
1078 3232 3964 3 
1079 3232 3231 1 
1080 4975 4976 1 
1081 4987 4988 1 
1082 4260 4970 3 
1083 4260 4259 1 
1084 4970 4480 3 
1085 4970 4969 1 
1086 4480 4260 3 
1087 4480 4479 1 
1088 4725 4726 1 
1089 3751 3752 1 
1090 5724 5714 3 
1091 5714 5713 1 
1092 5713 6005 2 
1093 496 484 3 
1094 1488 1487 1 
1095 1476 1488 3 
1096 2483 2484 1 
1097 2224 2972 3 
1098 2224 2223 1 
1099 2972 2242 3 
1100 2972 2971 1 
1101 3214 2986 3 
1102 3214 3213 1 
1103 2994 3214 3 
1104 2994 2993 1 
1105 2994 3210 3 
1106 3210 2986 3 
1107 3210 3209 1 
1108 3210 3214 3 
1109 2975 2976 1 
1110 3741 3742 1 
1111 3483 3484 1 
1112 3483 3741 2 
1113 2986 2994 3 
1114 2986 2985 1 
1115 3225 3226 1 
1116 3225 3963 2 
1117 4491 4492 1 
1118 3243 3244 1 
1119 3243 4491 2 
1120 5216 5215 1 
1121 4977 4978 1 
1122 4259 4721 2 
1123 5755 5756 1 
1124 5266 5490 3 
1125 5266 5265 1 
1126 475 476 1 
1127 253 254 1 
1128 5973 5974 1 
1129 1005 1006 1 
1130 234 233 1 
1131 506 234 3 
1132 505 506 1 
1133 5 6 1 
1134 5 733 2 
1135 485 1239 2 
1136 486 485 1 
1137 1242 486 3 
1138 1239 1240 1 
1139 1247 1475 2 
1140 1475 1476 1 
1141 1013 1014 1 
1142 1013 1241 2 
1143 1241 1242 1 
1144 1762 1761 1 
1145 1484 1762 3 
1146 1485 1486 1 
1147 2245 2246 1 
1148 2255 2256 1 
1149 1233 1234 1 
1150 2016 2004 3 
1151 2016 2015 1 
1152 2016 2030 3 
1153 2004 2030 3 
1154 2004 2003 1 
1155 2503 2504 1 
1156 2503 2739 2 
1157 2247 2248 1 
1158 3493 4021 2 
1159 3465 3466 1 
1160 3494 3493 1 
1161 3758 3494 3 
1162 3491 3492 1 
1163 4247 4248 1 
1164 4221 4222 1 
1165 4724 4723 1 
1166 4758 4724 3 
1167 4757 4758 1 
1168 5490 5492 3 
1169 5490 5489 1 
1170 5492 5266 3 
1171 5492 5491 1 
1172 5259 5260 1 
1173 5259 5737 2 
1174 5737 5738 1 
1175 5019 5265 2 
1176 5472 5734 3 
1177 5472 5471 1 
1178 5748 5472 3 
1179 5748 5747 1 
1180 5734 5748 3 
1181 5734 5733 1 
1182 243 475 2 
1183 225 226 1 
1184 29 251 2 
1185 251 252 1 
1186 6025 6026 1 
1187 763 764 1 
1188 764 310 3 
1189 310 309 1 
1190 25 26 1 
1191 1256 1255 1 
1192 1501 1502 1 
1193 757 758 1 
1194 1263 1264 1 
1195 1280 1008 3 
1196 1280 1279 1 
1197 1008 1786 3 
1198 1008 1007 1 
1199 769 770 1 
1200 1507 1508 1 
1201 1507 2225 2 
1202 1537 1538 1 
1203 1265 1266 1 
1204 1265 2273 2 
1205 1272 1764 3 
1206 1272 1271 1 
1207 1764 2226 3 
1208 1764 1763 1 
1209 2226 1272 3 
1210 2226 2225 1 
1211 1517 1518 1 
1212 1751 1752 1 
1213 1751 2769 2 
1214 1723 1724 1 
1215 1723 2253 2 
1216 2251 2489 2 
1217 2785 2786 1 
1218 2276 2018 3 
1219 2276 2275 1 
1220 2754 2276 3 
1221 2754 2753 1 
1222 2508 2276 3 
1223 2508 2507 1 
1224 2508 2754 3 
1225 2018 2508 3 
1226 2018 2017 1 
1227 2018 2754 3 
1228 2961 2962 1 
1229 2525 2526 1 
1230 2525 2785 2 
1231 2504 2740 3 
1232 2740 2739 1 
1233 2279 2509 2 
1234 2509 2510 1 
1235 2745 2746 1 
1236 2507 2755 2 
1237 2481 2482 1 
1238 3257 3258 1 
1239 2497 2498 1 
1240 3304 3550 3 
1241 3550 3549 1 
1242 3504 4022 3 
1243 4022 4021 1 
1244 4257 4258 1 
1245 3759 3767 2 
1246 3767 3768 1 
1247 3770 3769 1 
1248 4012 3770 3 
1249 4007 4008 1 
1250 3778 3777 1 
1251 3513 3514 1 
1252 3527 3528 1 
1253 3527 3777 2 
1254 3764 3778 3 
1255 4503 4504 1 
1256 3769 4503 2 
1257 3766 3744 3 
1258 3766 3765 1 
1259 3766 4290 3 
1260 4744 3766 3 
1261 4744 4743 1 
1262 4290 4744 3 
1263 4290 4289 1 
1264 3744 4744 3 
1265 3744 3743 1 
1266 3744 4290 3 
1267 4521 4522 1 
1268 4521 4761 2 
1269 4761 4762 1 
1270 5790 5504 3 
1271 5790 5789 1 
1272 4752 5790 3 
1273 4752 4751 1 
1274 5504 4752 3 
1275 5504 5503 1 
1276 5025 5026 1 
1277 5001 5263 2 
1278 4756 4755 1 
1279 5502 5501 1 
1280 5533 5534 1 
1281 6004 4756 3 
1282 5014 5502 3 
1283 5239 5240 1 
1284 5005 5006 1 
1285 5005 5279 2 
1286 5276 5758 3 
1287 5276 5275 1 
1288 5020 5276 3 
1289 5020 5019 1 
1290 5758 5020 3 
1291 5758 5757 1 
1292 5521 5522 1 
1293 5983 5984 1 
1294 5520 5519 1 
1295 5255 5747 2 
1296 5981 6007 2 
1297 27 28 1 
1298 5517 5518 1 
1299 22 512 3 
1300 22 274 3 
1301 5765 6013 2 
1302 529 530 1 
1303 6013 6014 1 
1304 489 490 1 
1305 30 6016 3 
1306 30 29 1 
1307 520 30 3 
1308 520 519 1 
1309 6016 520 3 
1310 6016 6015 1 
1311 514 513 1 
1312 6041 6042 1 
1313 502 1022 3 
1314 1067 1068 1 
1315 516 284 3 
1316 284 283 1 
1317 1030 782 3 
1318 1030 1029 1 
1319 782 1276 3 
1320 782 781 1 
1321 535 1021 2 
1322 760 1054 3 
1323 760 759 1 
1324 1021 1022 1 
1325 747 748 1 
1326 1308 760 3 
1327 1308 1307 1 
1328 1276 1030 3 
1329 1276 1275 1 
1330 1786 1280 3 
1331 1786 1785 1 
1332 1780 1034 3 
1333 1780 1779 1 
1334 1034 2020 3 
1335 1034 1033 1 
1336 2020 1780 3 
1337 2020 2019 1 
1338 1757 1758 1 
1339 1266 2014 3 
1340 1747 1748 1 
1341 1747 1757 2 
1342 2014 2013 1 
1343 1769 1770 1 
1344 2049 2050 1 
1345 2023 2293 2 
1346 1519 2275 2 
1347 2266 2294 3 
1348 2266 2265 1 
1349 2770 2266 3 
1350 2770 2769 1 
1351 2294 2770 3 
1352 2294 2293 1 
1353 2314 1520 3 
1354 2271 2272 1 
1355 2271 2763 2 
1356 2763 2764 1 
1357 2760 2759 1 
1358 3018 2760 3 
1359 1995 1996 1 
1360 3017 3018 1 
1361 2262 3262 3 
1362 2262 2261 1 
1363 2262 2518 3 
1364 2511 2512 1 
1365 2511 2767 2 
1366 3262 3788 3 
1367 3262 3261 1 
1368 3788 2262 3 
1369 3788 3787 1 
1370 2518 3262 3 
1371 2518 2517 1 
1372 2518 3788 3 
1373 3549 3779 2 
1374 4017 4018 1 
1375 4017 4285 2 
1376 4285 4286 1 
1377 4513 4514 1 
1378 4011 4012 1 
1379 4266 4272 3 
1380 4266 4265 1 
1381 4266 4270 3 
1382 4278 4266 3 
1383 4278 4277 1 
1384 4793 4794 1 
1385 4270 4272 3 
1386 4270 4269 1 
1387 4270 4278 3 
1388 4272 4278 3 
1389 4272 4271 1 
1390 5036 4282 3 
1391 5036 5035 1 
1392 4534 5036 3 
1393 4534 4533 1 
1394 4264 5036 3 
1395 4264 4263 1 
1396 4264 4534 3 
1397 4282 4264 3 
1398 4282 4281 1 
1399 4282 4534 3 
1400 4281 4787 2 
1401 4289 4497 2 
1402 4497 4498 1 
1403 4516 4780 3 
1404 4516 4515 1 
1405 4780 4262 3 
1406 4780 4779 1 
1407 4262 4516 3 
1408 4262 4261 1 
1409 5011 5012 1 
1410 4775 4776 1 
1411 4775 5011 2 
1412 5534 5264 3 
1413 5264 5263 1 
1414 5022 4520 3 
1415 5022 5021 1 
1416 4774 5022 3 
1417 4774 4773 1 
1418 5261 5987 2 
1419 5015 5016 1 
1420 5015 5519 2 
1421 5763 5764 1 
1422 5761 5762 1 
1423 5987 5988 1 
1424 6048 5262 3 
1425 5262 5261 1 
1426 5762 5004 3 
1427 6011 6012 1 
1428 5003 5515 2 
1429 5515 5516 1 
1430 21 22 1 
1431 21 511 2 
1432 5771 5772 1 
1433 5767 5768 1 
1434 37 38 1 
1435 37 6039 2 
1436 6039 6040 1 
1437 788 514 3 
1438 261 531 2 
1439 775 776 1 
1440 787 788 1 
1441 787 1029 2 
1442 785 786 1 
1443 767 768 1 
1444 767 1043 2 
1445 1043 1044 1 
1446 1054 1308 3 
1447 1054 1053 1 
1448 1041 1042 1 
1449 1038 1037 1 
1450 1032 1038 3 
1451 1536 1268 3 
1452 1536 1535 1 
1453 1760 1536 3 
1454 1760 1759 1 
1455 1278 1268 3 
1456 1278 1277 1 
1457 1278 1760 3 
1458 1278 1536 3 
1459 1268 1760 3 
1460 1268 1267 1 
1461 1776 1775 1 
1462 761 762 1 
1463 761 1037 2 
1464 1744 2024 3 
1465 2289 2290 1 
1466 1772 1282 3 
1467 1282 1281 1 
1468 2024 2023 1 
1469 2297 2298 1 
1470 2283 2284 1 
1471 2540 2286 3 
1472 2286 2285 1 
1473 1520 1519 1 
1474 2040 1544 3 
1475 2040 2039 1 
1476 2281 2529 2 
1477 2759 3251 2 
1478 3546 3026 3 
1479 3546 3545 1 
1480 3020 2798 3 
1481 3020 3019 1 
1482 3020 3546 3 
1483 3020 3026 3 
1484 3026 2798 3 
1485 3026 3025 1 
1486 2798 3546 3 
1487 2798 2797 1 
1488 2521 2522 1 
1489 3496 3022 3 
1490 2784 2783 1 
1491 3022 3021 1 
1492 3261 3545 2 
1493 3515 3516 1 
1494 2791 3267 2 
1495 3577 3578 1 
1496 4024 4023 1 
1497 3270 4024 3 
1498 4046 3544 3 
1499 4046 4045 1 
1500 3544 4028 3 
1501 3544 3543 1 
1502 3013 3014 1 
1503 3013 4513 2 
1504 4518 4517 1 
1505 4772 4518 3 
1506 5023 5024 1 
1507 4763 5023 2 
1508 4764 4532 3 
1509 4764 4763 1 
1510 4556 4764 3 
1511 4556 4555 1 
1512 4550 4764 3 
1513 4550 4549 1 
1514 4550 4556 3 
1515 4532 4550 3 
1516 4532 4531 1 
1517 4532 4556 3 
1518 4037 4038 1 
1519 4295 4296 1 
1520 4261 4267 2 
1521 4267 4268 1 
1522 4791 4792 1 
1523 4520 4774 3 
1524 4520 4519 1 
1525 4759 4760 1 
1526 4519 5031 2 
1527 4781 4782 1 
1528 4781 5529 2 
1529 6047 6048 1 
1530 5539 5540 1 
1531 5004 5003 1 
1532 6031 6032 1 
1533 5774 5800 3 
1534 5774 5773 1 
1535 6024 5774 3 
1536 6024 6023 1 
1537 5800 6024 3 
1538 5800 5799 1 
1539 542 541 1 
1540 31 32 1 
1541 31 773 2 
1542 32 262 3 
1543 279 280 1 
1544 262 261 1 
1545 255 256 1 
1546 1015 1016 1 
1547 19 20 1 
1548 554 546 3 
1549 554 553 1 
1550 792 554 3 
1551 792 791 1 
1552 1025 1026 1 
1553 546 792 3 
1554 546 545 1 
1555 547 1025 2 
1556 1016 550 3 
1557 550 549 1 
1558 517 518 1 
1559 47 48 1 
1560 47 517 2 
1561 793 794 1 
1562 557 789 2 
1563 289 1759 2 
1564 789 790 1 
1565 1528 1284 3 
1566 1528 1527 1 
1567 1777 1778 1 
1568 1267 1549 2 
1569 534 533 1 
1570 1512 534 3 
1571 1539 1540 1 
1572 319 320 1 
1573 1771 1772 1 
1574 1511 1512 1 
1575 1511 1743 2 
1576 1743 1744 1 
1577 2025 2026 1 
1578 2025 2807 2 
1579 2807 2808 1 
1580 1827 1828 1 
1581 2573 2574 1 
1582 2765 2766 1 
1583 2282 1784 3 
1584 2282 2281 1 
1585 1784 3252 3 
1586 1784 1783 1 
1587 3252 2282 3 
1588 3252 3251 1 
1589 2295 2296 1 
1590 3299 3300 1 
1591 3293 3294 1 
1592 3285 3286 1 
1593 3285 3293 2 
1594 3578 2782 3 
1595 2782 2781 1 
1596 2781 3289 2 
1597 4062 4061 1 
1598 3796 4062 3 
1599 4035 4036 1 
1600 4033 4045 2 
1601 3783 3784 1 
1602 3320 3319 1 
1603 4040 3320 3 
1604 3811 3812 1 
1605 3804 3803 1 
1606 4039 4040 1 
1607 4771 4772 1 
1608 3567 3568 1 
1609 4034 4033 1 
1610 4287 4288 1 
1611 4531 4553 2 
1612 5027 5028 1 
1613 4029 4030 1 
1614 4294 4293 1 
1615 4296 4294 3 
1616 5283 5284 1 
1617 5040 5582 3 
1618 5040 5039 1 
1619 4558 5032 3 
1620 4558 4557 1 
1621 4558 5054 3 
1622 4558 5254 3 
1623 5032 5054 3 
1624 5032 5031 1 
1625 5254 5032 3 
1626 5254 5253 1 
1627 5054 5254 3 
1628 5054 5053 1 
1629 5033 5034 1 
1630 5314 5040 3 
1631 5314 5313 1 
1632 5313 5545 2 
1633 5277 5278 1 
1634 5277 5283 2 
1635 5582 5314 3 
1636 5582 5581 1 
1637 5029 5030 1 
1638 4528 5582 3 
1639 4528 4527 1 
1640 4528 5040 3 
1641 4528 5314 3 
1642 5523 5524 1 
1643 5549 5550 1 
1644 5776 5775 1 
1645 5536 5332 3 
1646 5536 5535 1 
1647 5286 5776 3 
1648 5570 5310 3 
1649 5570 5569 1 
1650 5300 5570 3 
1651 5300 5299 1 
1652 5310 5300 3 
1653 5310 5309 1 
1654 5531 5781 2 
1655 5781 5782 1 
1656 5777 5778 1 
1657 17 18 1 
1658 6030 542 3 
1659 773 774 1 
1660 5803 5804 1 
1661 79 80 1 
1662 55 67 2 
1663 67 68 1 
1664 6055 6056 1 
1665 65 807 2 
1666 311 312 1 
1667 312 808 3 
1668 808 807 1 
1669 795 796 1 
1670 288 556 3 
1671 288 287 1 
1672 556 302 3 
1673 556 555 1 
1674 302 288 3 
1675 302 301 1 
1676 805 806 1 
1677 805 1553 2 
1678 1555 2055 2 
1679 780 1804 3 
1680 780 779 1 
1681 2055 2056 1 
1682 1547 2303 2 
1683 1286 780 3 
1684 1286 1285 1 
1685 1286 1296 3 
1686 1803 2541 2 
1687 2303 2304 1 
1688 1804 1286 3 
1689 1804 1803 1 
1690 1753 2027 2 
1691 1815 1816 1 
1692 1815 1829 2 
1693 1291 1292 1 
1694 2027 2028 1 
1695 2033 2034 1 
1696 2079 2080 1 
1697 1297 1298 1 
1698 1799 2069 2 
1699 2331 2332 1 
1700 2306 1790 3 
1701 1790 1789 1 
1702 2067 2068 1 
1703 2067 2587 2 
1704 3326 3325 1 
1705 2812 3326 3 
1706 3330 3329 1 
1707 2264 3036 3 
1708 2264 2263 1 
1709 3065 3066 1 
1710 3065 3325 2 
1711 3036 3296 3 
1712 3036 3035 1 
1713 3296 2264 3 
1714 3296 3295 1 
1715 3294 3796 3 
1716 3294 4062 3 
1717 3560 4062 3 
1718 3045 3046 1 
1719 3541 3791 2 
1720 3795 3796 1 
1721 3791 3792 1 
1722 3589 3590 1 
1723 4051 4052 1 
1724 4052 3804 3 
1725 3807 3808 1 
1726 3331 3332 1 
1727 3781 3782 1 
1728 4317 4318 1 
1729 4058 4057 1 
1730 3568 4058 3 
1731 4291 4292 1 
1732 4069 4070 1 
1733 3555 3781 2 
1734 3805 3806 1 
1735 4817 4818 1 
1736 4315 4316 1 
1737 4085 4086 1 
1738 5311 5312 1 
1739 4806 4054 3 
1740 4054 4053 1 
1741 4053 4305 2 
1742 4548 4547 1 
1743 5312 4548 3 
1744 4805 4806 1 
1745 4305 4306 1 
1746 4567 4568 1 
1747 4567 5331 2 
1748 5332 5294 3 
1749 5332 5331 1 
1750 5579 5580 1 