ITEM: TIMESTEP
75240
ITEM: NUMBER OF ENTRIES
7987
ITEM: BOX BOUNDS pp pp ff
0.0000000000000000e+00 7.2168784000000002e+01
0.0000000000000000e+00 7.2168784000000002e+01
0.0000000000000000e+00 1.2000000000000000e+01
ITEM: ENTRIES index c_1[1] c_1[2] c_1[3]
1 6022 248 3 
2 6022 6021 1 
3 12 34 3 
4 12 11 1 
5 12 6022 3 
6 248 12 3 
7 248 247 1 
8 34 248 3 
9 34 33 1 
10 34 6022 3 
11 11 6051 2 
12 6051 6052 1 
13 269 270 1 
14 233 269 2 
15 6052 748 3 
16 748 747 1 
17 536 1002 3 
18 536 535 1 
19 536 1758 3 
20 1758 1020 3 
21 1758 1757 1 
22 1270 1269 1 
23 1020 536 3 
24 1020 1019 1 
25 1769 1770 1 
26 1747 1757 2 
27 2253 2254 1 
28 1723 2253 2 
29 2507 2755 2 
30 2777 3787 2 
31 3510 3010 3 
32 3510 3509 1 
33 2223 3447 2 
34 3788 2262 3 
35 3788 3787 1 
36 3262 3788 3 
37 3262 3261 1 
38 2262 3262 3 
39 2262 2261 1 
40 2262 2518 3 
41 2518 3262 3 
42 2518 2517 1 
43 2518 3788 3 
44 3004 3030 3 
45 3004 3003 1 
46 3277 3278 1 
47 3270 4024 3 
48 4024 4023 1 
49 3511 3512 1 
50 4530 4462 3 
51 4530 4529 1 
52 4002 4462 3 
53 4002 4001 1 
54 4002 4530 3 
55 4002 4748 3 
56 4488 5238 3 
57 4488 4487 1 
58 5238 6246 3 
59 5238 5237 1 
60 6246 4488 3 
61 6246 6245 1 
62 5014 5502 3 
63 5759 5760 1 
64 5502 5501 1 
65 5520 5496 3 
66 5520 5519 1 
67 6224 250 3 
68 6224 6223 1 
69 250 6008 3 
70 250 249 1 
71 250 1006 3 
72 6008 6224 3 
73 6008 6007 1 
74 1006 6224 3 
75 1006 1005 1 
76 1006 6008 3 
77 15 499 2 
78 29 251 2 
79 5516 6016 3 
80 5516 5515 1 
81 30 6016 3 
82 30 29 1 
83 30 5516 3 
84 525 526 1 
85 473 525 2 
86 520 30 3 
87 520 519 1 
88 520 5516 3 
89 33 501 2 
90 6011 6021 2 
91 6016 520 3 
92 6016 6015 1 
93 5766 5765 1 
94 5766 6242 3 
95 274 273 1 
96 274 6010 3 
97 526 522 3 
98 526 1022 3 
99 522 521 1 
100 522 768 3 
101 270 522 3 
102 270 768 3 
103 270 526 3 
104 778 1042 3 
105 778 777 1 
106 1244 778 3 
107 1244 1243 1 
108 759 777 2 
109 1002 1020 3 
110 1002 1001 1 
111 1002 1758 3 
112 2023 2293 2 
113 2298 2526 3 
114 2298 2297 1 
115 2298 2774 3 
116 2526 2764 3 
117 2526 2525 1 
118 2002 2486 3 
119 2002 2774 3 
120 2486 2485 1 
121 2486 2774 3 
122 2764 2298 3 
123 2764 2763 1 
124 2001 2002 1 
125 2001 2485 2 
126 3985 4257 2 
127 4257 4258 1 
128 2302 2512 3 
129 3769 4503 2 
130 3502 3501 1 
131 3992 3502 3 
132 4011 4012 1 
133 3770 3769 1 
134 4012 3770 3 
135 4270 4272 3 
136 4270 4269 1 
137 4270 4278 3 
138 4266 4272 3 
139 4266 4265 1 
140 4266 4270 3 
141 4278 4266 3 
142 4278 4277 1 
143 4272 4278 3 
144 4272 4271 1 
145 4245 4529 2 
146 4246 4526 3 
147 4246 4245 1 
148 4246 4274 3 
149 4526 4788 3 
150 4526 4525 1 
151 4020 4244 3 
152 4244 4243 1 
153 5496 5278 3 
154 5496 5495 1 
155 5278 5520 3 
156 5278 5277 1 
157 5003 5515 2 
158 245 1005 2 
159 252 6012 3 
160 252 251 1 
161 252 5768 3 
162 5768 5772 3 
163 5768 5767 1 
164 5768 6012 3 
165 6012 5772 3 
166 6012 6011 1 
167 5772 252 3 
168 5772 5771 1 
169 239 240 1 
170 239 5539 2 
171 5765 6013 2 
172 38 37 1 
173 258 38 3 
174 554 546 3 
175 554 553 1 
176 554 1068 3 
177 792 554 3 
178 792 791 1 
179 792 1068 3 
180 546 792 3 
181 546 545 1 
182 546 1068 3 
183 2551 2552 1 
184 2038 2037 1 
185 3046 2038 3 
186 3991 3992 1 
187 4518 4772 3 
188 4518 4517 1 
189 4517 4809 2 
190 4039 4277 2 
191 4525 4789 2 
192 18 5788 3 
193 31 773 2 
194 32 1026 3 
195 32 31 1 
196 5540 542 3 
197 5540 5539 1 
198 5540 5780 3 
199 17 18 1 
200 1330 1329 1 
201 20 1330 3 
202 19 39 2 
203 19 20 1 
204 1035 1329 2 
205 518 786 3 
206 518 517 1 
207 518 790 3 
208 1760 1536 3 
209 1760 1759 1 
210 1278 1268 3 
211 1278 1277 1 
212 1278 1760 3 
213 1278 1536 3 
214 1268 1760 3 
215 1268 1267 1 
216 1536 1268 3 
217 1536 1535 1 
218 1267 1549 2 
219 1301 1569 2 
220 2552 3784 3 
221 3784 3783 1 
222 3310 3792 3 
223 3310 3309 1 
224 3792 3292 3 
225 3792 3791 1 
226 3263 3535 2 
227 3312 3311 1 
228 3312 3804 3 
229 3804 4052 3 
230 3558 4066 3 
231 3558 3557 1 
232 3558 3574 3 
233 4052 4051 1 
234 4052 3312 3 
235 4802 4554 3 
236 5024 4518 3 
237 5024 5023 1 
238 4772 5024 3 
239 4772 4771 1 
240 4790 4789 1 
241 4316 4790 3 
242 4754 4746 3 
243 4754 4753 1 
244 4746 5002 3 
245 4746 4745 1 
246 4746 5290 3 
247 5788 5787 1 
248 75 6093 2 
249 1552 1808 3 
250 1333 2307 2 
251 1551 1552 1 
252 1539 1791 2 
253 1540 1572 3 
254 1540 1539 1 
255 1302 1540 3 
256 1302 1301 1 
257 1572 1302 3 
258 1572 1571 1 
259 1064 1572 3 
260 1064 1063 1 
261 1064 1540 3 
262 1064 1302 3 
263 1823 2289 2 
264 1334 2054 3 
265 1334 1333 1 
266 2054 2332 3 
267 2054 2053 1 
268 2574 1828 3 
269 2574 2573 1 
270 1828 2328 3 
271 1828 1827 1 
272 1796 2564 3 
273 1796 1795 1 
274 1796 2776 3 
275 1796 2044 3 
276 3602 3832 3 
277 3602 3601 1 
278 3563 3831 2 
279 4801 4802 1 
280 4568 4768 3 
281 4768 4767 1 
282 5044 5814 3 
283 5044 5043 1 
284 5814 5302 3 
285 5814 5813 1 
286 5819 6083 2 
287 5988 5987 1 
288 5034 5988 3 
289 562 300 3 
290 562 561 1 
291 76 562 3 
292 76 75 1 
293 324 76 3 
294 324 323 1 
295 324 562 3 
296 300 76 3 
297 300 299 1 
298 300 324 3 
299 329 330 1 
300 329 561 2 
301 5805 6043 2 
302 5821 5822 1 
303 314 70 3 
304 314 313 1 
305 798 314 3 
306 798 797 1 
307 72 314 3 
308 72 71 1 
309 72 798 3 
310 70 798 3 
311 70 69 1 
312 70 72 3 
313 1808 1807 1 
314 1313 1807 2 
315 2303 2304 1 
316 2599 2600 1 
317 2304 1314 3 
318 1314 1313 1 
319 1795 2053 2 
320 2291 2353 2 
321 2353 2354 1 
322 3300 2822 3 
323 3300 3299 1 
324 3280 3300 3 
325 3280 3279 1 
326 2036 2035 1 
327 2810 2036 3 
328 2793 2811 2 
329 2822 3280 3 
330 2822 2821 1 
331 2035 3587 2 
332 3067 3321 2 
333 4291 4587 2 
334 4292 3568 3 
335 4292 4291 1 
336 4292 4300 3 
337 4058 4292 3 
338 4058 4057 1 
339 5302 5044 3 
340 5302 5301 1 
341 5816 74 3 
342 5816 5815 1 
343 74 6084 3 
344 74 73 1 
345 6084 5816 3 
346 6084 6083 1 
347 5559 6053 2 
348 5089 5090 1 
349 593 5837 2 
350 354 5806 3 
351 354 353 1 
352 354 5826 3 
353 5806 6054 3 
354 5806 5805 1 
355 5806 5826 3 
356 5826 6054 3 
357 5826 5825 1 
358 345 575 2 
359 1076 68 3 
360 1076 1075 1 
361 308 307 1 
362 825 1813 2 
363 1560 1078 3 
364 1560 1559 1 
365 1078 844 3 
366 1078 1077 1 
367 844 1560 3 
368 844 843 1 
369 828 1832 3 
370 828 827 1 
371 1832 1074 3 
372 1832 1831 1 
373 1074 828 3 
374 1074 1073 1 
375 1799 2069 2 
376 2581 2582 1 
377 2354 2582 3 
378 2354 3038 3 
379 1790 2058 3 
380 1790 1789 1 
381 1790 2354 3 
382 3038 3037 1 
383 2582 2824 3 
384 2824 3038 3 
385 2070 2069 1 
386 2070 3352 3 
387 2046 2312 3 
388 2046 2582 3 
389 1826 2070 3 
390 2306 1790 3 
391 2306 2305 1 
392 2306 3352 3 
393 2058 2306 3 
394 2058 2057 1 
395 2058 3352 3 
396 1825 1845 2 
397 1825 1826 1 
398 1845 1846 1 
399 1846 2580 3 
400 2580 2579 1 
401 3073 2843 2 
402 2330 2594 3 
403 2330 2329 1 
404 2594 3056 3 
405 2594 2593 1 
406 3056 2330 3 
407 3056 3055 1 
408 2820 2794 3 
409 2820 2819 1 
410 2837 3059 2 
411 3596 3584 3 
412 3584 3583 1 
413 3848 3830 3 
414 3848 3847 1 
415 3830 3324 3 
416 3830 3829 1 
417 3324 3848 3 
418 3324 3323 1 
419 3822 4572 3 
420 3822 3821 1 
421 3822 4610 3 
422 4610 4572 3 
423 4610 4609 1 
424 3568 4058 3 
425 3568 3567 1 
426 3568 4300 3 
427 4300 4058 3 
428 4300 4299 1 
429 4310 4309 1 
430 4816 4310 3 
431 4853 4854 1 
432 5563 5811 2 
433 5052 5051 1 
434 5090 5052 3 
435 5564 6080 3 
436 5564 5563 1 
437 5083 5089 2 
438 6080 544 3 
439 6080 6079 1 
440 544 5564 3 
441 544 543 1 
442 5822 5838 3 
443 5838 5837 1 
444 5560 5808 3 
445 5560 5559 1 
446 5560 5794 3 
447 356 308 3 
448 564 563 1 
449 564 840 3 
450 840 839 1 
451 82 564 3 
452 82 840 3 
453 571 1559 2 
454 1328 1090 3 
455 1328 1327 1 
456 595 1107 2 
457 841 843 2 
458 1367 1368 1 
459 1077 1367 2 
460 860 859 1 
461 1341 1342 1 
462 1341 1831 2 
463 2319 2320 1 
464 817 2319 2 
465 818 1098 3 
466 818 817 1 
467 2320 1600 3 
468 2320 2368 3 
469 2064 2368 3 
470 2064 2120 3 
471 1600 1599 1 
472 1600 2064 3 
473 1600 2368 3 
474 2312 2311 1 
475 3351 3352 1 
476 2359 2367 2 
477 2367 2368 1 
478 2045 2046 1 
479 2045 3043 2 
480 3037 3095 2 
481 2082 2081 1 
482 2071 2311 2 
483 3847 3829 2 
484 3850 3822 3 
485 3850 3849 1 
486 3850 4610 3 
487 4105 4609 2 
488 4604 5346 3 
489 4604 4603 1 
490 4340 4604 3 
491 4340 4339 1 
492 5346 4340 3 
493 5346 5345 1 
494 5051 5573 2 
495 5616 906 3 
496 5616 5615 1 
497 6144 6143 1 
498 906 6144 3 
499 906 905 1 
500 116 115 1 
501 90 116 3 
502 81 82 1 
503 81 563 2 
504 1638 860 3 
505 842 1582 3 
506 842 841 1 
507 842 848 3 
508 848 1368 3 
509 848 1586 3 
510 1084 842 3 
511 1084 1083 1 
512 1574 1586 3 
513 1574 1860 3 
514 1582 1084 3 
515 1582 1581 1 
516 2063 2064 1 
517 1812 1810 3 
518 1812 1811 1 
519 1812 2074 3 
520 1812 2090 3 
521 1810 2090 3 
522 1810 1809 1 
523 2109 2607 2 
524 2081 2089 2 
525 1811 2623 2 
526 2850 2624 3 
527 2850 2849 1 
528 2608 2624 3 
529 2608 2607 1 
530 2608 2850 3 
531 2624 2344 3 
532 2624 2623 1 
533 2344 2850 3 
534 2344 2343 1 
535 2344 2608 3 
536 2816 2082 3 
537 2815 2816 1 
538 1819 2577 2 
539 2363 2861 2 
540 2864 2894 3 
541 2864 2863 1 
542 2342 2864 3 
543 2342 2341 1 
544 2342 2364 3 
545 3092 3606 3 
546 3092 3091 1 
547 3606 3864 3 
548 3606 3605 1 
549 3864 3092 3 
550 3864 3863 1 
551 2841 3333 2 
552 3334 3594 3 
553 3334 3333 1 
554 3334 4124 3 
555 3594 3366 3 
556 3594 3593 1 
557 2842 4350 3 
558 2842 2841 1 
559 4332 4100 3 
560 4332 4331 1 
561 4324 4100 3 
562 4324 4323 1 
563 4324 4332 3 
564 4324 4856 3 
565 4856 4332 3 
566 4856 4855 1 
567 4100 4856 3 
568 4100 4099 1 
569 5092 5376 3 
570 5092 5091 1 
571 5092 5106 3 
572 5376 4580 3 
573 5376 5375 1 
574 4375 4376 1 
575 4375 5375 2 
576 5106 4580 3 
577 5106 5105 1 
578 5106 5376 3 
579 5360 5120 3 
580 4595 5093 2 
581 4600 4596 3 
582 4596 4595 1 
583 4599 4875 2 
584 4599 4600 1 
585 362 5864 3 
586 5864 5863 1 
587 361 362 1 
588 1079 1080 1 
589 1079 1355 2 
590 165 6143 2 
591 1387 1388 1 
592 1387 1609 2 
593 1609 1610 1 
594 1394 1870 3 
595 1394 1393 1 
596 1625 1629 2 
597 1870 1852 3 
598 1870 1869 1 
599 1852 1394 3 
600 1852 1851 1 
601 1351 2127 2 
602 1867 1868 1 
603 1867 2371 2 
604 1352 1820 3 
605 1352 1351 1 
606 1868 2116 3 
607 1402 1352 3 
608 1402 1401 1 
609 2825 3339 2 
610 1820 1402 3 
611 1820 1819 1 
612 3099 3100 1 
613 1857 3099 2 
614 2116 2115 1 
615 2358 2870 3 
616 2870 2869 1 
617 3624 3623 1 
618 3593 3863 2 
619 4363 4364 1 
620 3873 4363 2 
621 3591 3592 1 
622 3111 3591 2 
623 4570 4842 3 
624 4570 4569 1 
625 4570 4590 3 
626 4570 4608 3 
627 2335 3123 2 
628 4842 4608 3 
629 4842 4841 1 
630 4608 4590 3 
631 4608 4607 1 
632 4590 4842 3 
633 4590 4589 1 
634 3366 3334 3 
635 3366 3365 1 
636 3366 4124 3 
637 4569 4575 2 
638 1080 852 3 
639 1432 1356 3 
640 1432 1431 1 
641 5597 5598 1 
642 5597 5637 2 
643 1356 1106 3 
644 1356 1355 1 
645 1372 1371 1 
646 633 634 1 
647 2094 2093 1 
648 1132 3134 3 
649 1132 1131 1 
650 2372 1132 3 
651 2372 2371 1 
652 2856 1858 3 
653 2856 2855 1 
654 2856 3340 3 
655 3134 2372 3 
656 3134 3133 1 
657 2616 2856 3 
658 2616 2615 1 
659 1858 1857 1 
660 1858 3340 3 
661 1858 2616 3 
662 3340 2616 3 
663 3340 3339 1 
664 3644 3844 3 
665 3644 3643 1 
666 3372 3910 3 
667 3910 3909 1 
668 3379 3895 2 
669 3369 3867 2 
670 4121 4607 2 
671 3874 3884 3 
672 3874 3873 1 
673 2336 3884 3 
674 2336 2335 1 
675 2336 3874 3 
676 3875 3876 1 
677 3875 4589 2 
678 4119 4143 2 
679 4120 5356 3 
680 4120 4119 1 
681 5122 4120 3 
682 5122 5121 1 
683 4104 4870 3 
684 4104 4103 1 
685 4870 4370 3 
686 4870 4869 1 
687 4383 4889 2 
688 4384 4383 1 
689 852 851 1 
690 5842 5841 1 
691 6120 5842 3 
692 113 341 2 
693 877 5875 2 
694 379 6113 2 
695 1106 1432 3 
696 1106 1105 1 
697 6142 1372 3 
698 6125 6126 1 
699 1650 1649 1 
700 1381 1382 1 
701 1381 1897 2 
702 2169 2170 1 
703 1407 2169 2 
704 1131 1139 2 
705 2903 3133 2 
706 2903 2904 1 
707 2361 2362 1 
708 1363 3373 2 
709 2904 2390 3 
710 2390 2389 1 
711 3162 3370 3 
712 3370 3369 1 
713 3135 3909 2 
714 3135 3136 1 
715 3143 3641 2 
716 2877 3897 2 
717 3136 2878 3 
718 2878 2877 1 
719 4924 3622 3 
720 3622 3621 1 
721 4127 4129 2 
722 4369 4869 2 
723 4103 4115 2 
724 5356 5122 3 
725 5356 5355 1 
726 4397 5355 2 
727 5121 5143 2 
728 6115 6116 1 
729 5625 5626 1 
730 4371 5625 2 
731 6114 390 3 
732 6114 6113 1 
733 102 6086 3 
734 102 101 1 
735 102 878 3 
736 342 102 3 
737 342 341 1 
738 342 878 3 
739 878 6086 3 
740 878 877 1 
741 6086 342 3 
742 6086 6085 1 
743 390 124 3 
744 390 389 1 
745 124 6114 3 
746 124 123 1 
747 124 128 3 
748 128 6114 3 
749 128 127 1 
750 128 390 3 
751 401 402 1 
752 1134 1136 3 
753 1136 1135 1 
754 1898 1624 3 
755 1898 1897 1 
756 1624 1162 3 
757 1624 1623 1 
758 1624 1682 3 
759 1682 1162 3 
760 1682 1681 1 
761 1682 1898 3 
762 1162 1898 3 
763 1162 1161 1 
764 1856 1366 3 
765 1856 1855 1 
766 1377 1659 2 
767 1659 1660 1 
768 2362 1642 3 
769 1140 1856 3 
770 1140 1139 1 
771 1140 2896 3 
772 1642 1641 1 
773 2896 1856 3 
774 2896 2895 1 
775 1896 1670 3 
776 1896 1895 1 
777 1896 2622 3 
778 2622 1364 3 
779 2622 2621 1 
780 1364 1896 3 
781 1364 1363 1 
782 1895 2401 2 
783 2888 2872 3 
784 2888 2887 1 
785 2402 2888 3 
786 2402 2401 1 
787 3399 3667 2 
788 1927 2883 2 
789 3408 3400 3 
790 3408 3407 1 
791 3161 4141 2 
792 3161 3162 1 
793 2158 3400 3 
794 2158 2157 1 
795 2158 3408 3 
796 4923 4924 1 
797 3923 4923 2 
798 3886 2912 3 
799 2912 2911 1 
800 3390 4412 3 
801 3390 3389 1 
802 4130 3406 3 
803 4130 4129 1 
804 4130 4360 3 
805 4154 3390 3 
806 4154 4153 1 
807 5410 4406 3 
808 5410 5409 1 
809 4932 5410 3 
810 4932 4931 1 
811 4406 4932 3 
812 4406 4405 1 
813 5144 5143 1 
814 5154 5144 3 
815 4678 4677 1 
816 4851 4881 2 
817 4877 4931 2 
818 5623 5895 2 
819 121 123 2 
820 1164 6204 3 
821 622 1144 3 
822 622 621 1 
823 953 1623 2 
824 1878 1616 3 
825 2648 1938 3 
826 2648 2647 1 
827 1938 2662 3 
828 1938 1937 1 
829 2662 2648 3 
830 2662 2661 1 
831 1928 2632 3 
832 1928 1927 1 
833 2872 2402 3 
834 2872 2871 1 
835 2655 3151 2 
836 2871 2907 2 
837 2641 3177 2 
838 2157 2919 2 
839 2919 2920 1 
840 3177 3178 1 
841 2914 4142 3 
842 2914 2913 1 
843 4142 3900 3 
844 4142 4141 1 
845 3900 2914 3 
846 3900 3899 1 
847 3164 3666 3 
848 3164 3163 1 
849 3164 3388 3 
850 3388 3906 3 
851 3388 3387 1 
852 3388 3666 3 
853 3665 4147 2 
854 4412 4154 3 
855 4412 4411 1 
856 3889 3915 2 
857 5409 5427 2 
858 5394 4678 3 
859 5393 5394 1 
860 4893 5153 2 
861 5153 5154 1 
862 4399 5617 2 
863 403 5389 2 
864 5654 5692 3 
865 5654 5653 1 
866 5390 5654 3 
867 5390 5389 1 
868 5692 5390 3 
869 5692 5691 1 
870 122 5392 3 
871 122 121 1 
872 5392 6168 3 
873 5392 5391 1 
874 6168 122 3 
875 6168 6167 1 
876 6204 6203 1 
877 6167 6189 2 
878 171 5649 2 
879 689 893 2 
880 701 1173 2 
881 934 422 3 
882 934 933 1 
883 934 1152 3 
884 1174 1208 3 
885 1174 1173 1 
886 1174 1182 3 
887 1182 954 3 
888 1182 1181 1 
889 937 1207 2 
890 937 938 1 
891 1181 1191 2 
892 1208 1182 3 
893 1208 1207 1 
894 954 1208 3 
895 954 953 1 
896 954 1174 3 
897 1922 1894 3 
898 1922 1921 1 
899 1700 1922 3 
900 1700 1699 1 
901 1894 1700 3 
902 1894 1893 1 
903 1166 1700 3 
904 1166 1165 1 
905 1166 1922 3 
906 1166 1894 3 
907 1935 2927 2 
908 2927 2928 1 
909 1877 1878 1 
910 2200 1902 3 
911 2200 2199 1 
912 2200 2404 3 
913 1936 2200 3 
914 1936 1935 1 
915 1936 2404 3 
916 1902 1936 3 
917 1902 1901 1 
918 2404 1902 3 
919 2404 2403 1 
920 2448 2447 1 
921 2663 2683 2 
922 2664 3170 3 
923 2664 2663 1 
924 3170 2908 3 
925 3170 3169 1 
926 2908 2664 3 
927 2908 2907 1 
928 2159 2421 2 
929 2159 2160 1 
930 2920 2430 3 
931 3174 2656 3 
932 3174 3173 1 
933 3174 3680 3 
934 2934 3174 3 
935 2934 2933 1 
936 3680 2934 3 
937 3680 3679 1 
938 3663 3899 2 
939 3655 3656 1 
940 4894 4652 3 
941 4894 4893 1 
942 4894 5618 3 
943 4652 5168 3 
944 4652 4651 1 
945 5618 4652 3 
946 5618 5617 1 
947 5168 4894 3 
948 5168 5167 1 
949 5168 5618 3 
950 5440 5940 3 
951 5440 5439 1 
952 5440 5914 3 
953 5162 5940 3 
954 5162 5161 1 
955 5162 5440 3 
956 5940 5914 3 
957 5940 5939 1 
958 5914 5162 3 
959 5914 5913 1 
960 3893 3894 1 
961 3893 4865 2 
962 5419 5939 2 
963 5886 5698 3 
964 5886 5885 1 
965 5397 5885 2 
966 5658 420 3 
967 5658 5657 1 
968 5398 420 3 
969 5398 5397 1 
970 5398 5650 3 
971 5398 5658 3 
972 5650 5658 3 
973 5650 5649 1 
974 420 5650 3 
975 420 419 1 
976 894 670 3 
977 894 893 1 
978 1178 894 3 
979 1178 1177 1 
980 430 914 3 
981 430 429 1 
982 172 914 3 
983 172 171 1 
984 172 430 3 
985 172 674 3 
986 914 674 3 
987 914 913 1 
988 674 430 3 
989 674 673 1 
990 673 951 2 
991 452 214 3 
992 657 683 2 
993 655 6213 2 
994 6213 6214 1 
995 692 702 3 
996 692 691 1 
997 692 952 3 
998 1453 1665 2 
999 1435 1436 1 
1000 1435 2447 2 
1001 1436 2448 3 
1002 2673 3165 2 
1003 2197 2691 2 
1004 2949 2955 2 
1005 2684 2902 3 
1006 2684 2683 1 
1007 2684 3392 3 
1008 2192 3186 3 
1009 2192 2191 1 
1010 2192 2674 3 
1011 2670 2192 3 
1012 2670 2669 1 
1013 2670 2674 3 
1014 3186 2670 3 
1015 3186 3185 1 
1016 2674 3186 3 
1017 2674 2673 1 
1018 2422 2688 3 
1019 2422 2421 1 
1020 2722 2422 3 
1021 2722 2721 1 
1022 2688 2722 3 
1023 2688 2687 1 
1024 2900 2899 1 
1025 3402 2900 3 
1026 3674 3673 1 
1027 3172 3674 3 
1028 3204 3438 3 
1029 3204 3203 1 
1030 4950 4949 1 
1031 4166 3430 3 
1032 4166 4165 1 
1033 5146 4918 3 
1034 5146 5145 1 
1035 4914 3938 3 
1036 4914 4913 1 
1037 4914 5160 3 
1038 5370 5166 3 
1039 5370 5369 1 
1040 5370 5416 3 
1041 5416 5166 3 
1042 5416 5415 1 
1043 5166 4390 3 
1044 5166 5165 1 
1045 5184 5183 1 
1046 5183 5453 2 
1047 6217 6218 1 
1048 5420 5886 3 
1049 5420 5419 1 
1050 5698 5420 3 
1051 5698 5697 1 
1052 5444 5660 3 
1053 5444 5443 1 
1054 196 194 3 
1055 670 1178 3 
1056 670 669 1 
1057 194 193 1 
1058 197 449 2 
1059 193 6195 2 
1060 405 913 2 
1061 6195 6196 1 
1062 669 945 2 
1063 5993 5994 1 
1064 451 452 1 
1065 451 5993 2 
1066 6214 440 3 
1067 946 448 3 
1068 946 945 1 
1069 652 946 3 
1070 652 651 1 
1071 448 652 3 
1072 448 447 1 
1073 459 935 2 
1074 672 936 3 
1075 672 671 1 
1076 672 710 3 
1077 682 672 3 
1078 682 681 1 
1079 682 710 3 
1080 710 936 3 
1081 710 709 1 
1082 936 682 3 
1083 936 935 1 
1084 671 921 2 
1085 1454 1453 1 
1086 1666 1454 3 
1087 1665 1666 1 
1088 2198 2684 3 
1089 2198 2197 1 
1090 3392 2198 3 
1091 3392 3391 1 
1092 2902 2198 3 
1093 2902 2901 1 
1094 2902 3392 3 
1095 1663 1664 1 
1096 1663 2721 2 
1097 3945 4671 2 
1098 3459 3957 2 
1099 3457 3683 2 
1100 3460 3459 1 
1101 4220 4672 3 
1102 4672 4671 1 
1103 4164 4450 3 
1104 4450 4449 1 
1105 3976 3460 3 
1106 3430 3930 3 
1107 3430 3429 1 
1108 3429 3693 2 
1109 3930 4166 3 
1110 3930 3929 1 
1111 4458 4457 1 
1112 4444 4458 3 
1113 3707 3708 1 
1114 4683 4945 2 
1115 4697 5457 2 
1116 4469 4470 1 
1117 4469 4703 2 
1118 4913 5165 2 
1119 5900 4704 3 
1120 5900 5899 1 
1121 5900 5954 3 
1122 5954 4980 3 
1123 5954 5953 1 
1124 6174 5206 3 
1125 6174 6173 1 
1126 6218 424 3 
1127 424 423 1 
1128 450 6198 3 
1129 450 449 1 
1130 693 1177 2 
1131 730 729 1 
1132 5994 730 3 
1133 427 428 1 
1134 198 197 1 
1135 5960 450 3 
1136 5960 5959 1 
1137 6198 5960 3 
1138 6198 6197 1 
1139 694 693 1 
1140 428 694 3 
1141 406 405 1 
1142 6196 406 3 
1143 458 436 3 
1144 458 457 1 
1145 1180 458 3 
1146 1180 1179 1 
1147 436 1180 3 
1148 436 435 1 
1149 1462 1496 3 
1150 1462 1461 1 
1151 1422 1496 3 
1152 1422 1421 1 
1153 1422 1480 3 
1154 1422 1462 3 
1155 1496 1480 3 
1156 1496 1495 1 
1157 1480 1462 3 
1158 1480 1479 1 
1159 709 1461 2 
1160 1213 1719 2 
1161 1966 1965 1 
1162 2172 1966 3 
1163 2446 2930 3 
1164 2446 3458 3 
1165 2446 3190 3 
1166 3712 3928 3 
1167 3712 3711 1 
1168 3458 3712 3 
1169 3458 3457 1 
1170 3958 3946 3 
1171 3958 3957 1 
1172 3946 3450 3 
1173 3946 3945 1 
1174 3967 3977 2 
1175 2929 2930 1 
1176 3928 3458 3 
1177 3928 3927 1 
1178 3421 3422 1 
1179 3421 3711 2 
1180 3719 3931 2 
1181 4163 4164 1 
1182 3939 4163 2 
1183 3975 3976 1 
1184 4956 3932 3 
1185 4956 4955 1 
1186 3694 4956 3 
1187 3694 3693 1 
1188 3694 3934 3 
1189 3694 3932 3 
1190 3934 4956 3 
1191 3934 3933 1 
1192 3932 3934 3 
1193 3932 3931 1 
1194 4211 4465 2 
1195 5452 5200 3 
1196 5452 5451 1 
1197 5200 4466 3 
1198 5200 5199 1 
1199 4698 4448 3 
1200 4698 4697 1 
1201 4448 4210 3 
1202 4448 4447 1 
1203 4210 4698 3 
1204 4210 4209 1 
1205 5202 4710 3 
1206 4710 4709 1 
1207 4946 5190 3 
1208 4946 4945 1 
1209 4708 4946 3 
1210 4708 4707 1 
1211 5696 5230 3 
1212 5696 5695 1 
1213 5696 6240 3 
1214 6240 5470 3 
1215 6240 6239 1 
1216 5470 5696 3 
1217 5470 5469 1 
1218 5230 5470 3 
1219 5230 5229 1 
1220 5230 6240 3 
1221 5938 5964 3 
1222 5938 5937 1 
1223 5938 6174 3 
1224 5463 5937 2 
1225 5484 5483 1 
1226 5972 5484 3 
1227 5967 6173 2 
1228 715 716 1 
1229 715 5959 2 
1230 6220 6219 1 
1231 432 454 3 
1232 432 431 1 
1233 228 6220 3 
1234 6192 432 3 
1235 6192 6191 1 
1236 1444 700 3 
1237 1444 1443 1 
1238 221 222 1 
1239 221 431 2 
1240 700 976 3 
1241 700 699 1 
1242 700 1010 3 
1243 457 6199 2 
1244 975 1467 2 
1245 1467 1468 1 
1246 1217 1941 2 
1247 1720 1719 1 
1248 1720 2206 3 
1249 1942 1964 3 
1250 1942 1941 1 
1251 1942 2206 3 
1252 1964 1720 3 
1253 1964 1963 1 
1254 1964 2206 3 
1255 1486 2236 3 
1256 1486 1485 1 
1257 1486 2730 3 
1258 1486 1736 3 
1259 2236 1736 3 
1260 2236 2235 1 
1261 1736 2730 3 
1262 1736 1735 1 
1263 2232 2460 3 
1264 2232 2231 1 
1265 2232 2700 3 
1266 2232 3472 3 
1267 2460 2700 3 
1268 2460 2459 1 
1269 2450 3208 3 
1270 2450 2449 1 
1271 2445 2446 1 
1272 2445 3207 2 
1273 3979 3983 2 
1274 3933 3959 2 
1275 4203 4205 2 
1276 3762 4464 3 
1277 3762 3761 1 
1278 3466 3762 3 
1279 3466 3465 1 
1280 4464 3466 3 
1281 4464 4463 1 
1282 3761 5441 2 
1283 4209 5451 2 
1284 4225 4935 2 
1285 5441 5442 1 
1286 5718 5678 3 
1287 5678 5677 1 
1288 465 6239 2 
1289 5693 5695 2 
1290 5464 232 3 
1291 5464 5463 1 
1292 466 5464 3 
1293 466 465 1 
1294 705 6191 2 
1295 454 6192 3 
1296 454 453 1 
1297 6197 6219 2 
1298 987 988 1 
1299 987 6229 2 
1300 731 749 2 
1301 199 200 1 
1302 199 1443 2 
1303 949 1195 2 
1304 949 950 1 
1305 1459 1709 2 
1306 1993 1994 1 
1307 1993 2729 2 
1308 2730 2236 3 
1309 2730 2729 1 
1310 2216 1982 3 
1311 2216 2215 1 
1312 2216 2230 3 
1313 1460 2216 3 
1314 1460 1459 1 
1315 1460 2462 3 
1316 1982 1460 3 
1317 1982 1981 1 
1318 1982 2462 3 
1319 1491 1735 2 
1320 2461 2462 1 
1321 1946 1945 1 
1322 1976 1946 3 
1323 2694 1732 3 
1324 2694 2693 1 
1325 2189 2953 2 
1326 4970 4260 3 
1327 4970 4969 1 
1328 4260 4480 3 
1329 4260 4259 1 
1330 4480 4970 3 
1331 4480 4479 1 
1332 4969 4987 2 
1333 4479 4713 2 
1334 3752 4978 3 
1335 3752 3751 1 
1336 4714 4982 3 
1337 4714 4713 1 
1338 4982 4992 3 
1339 4982 4981 1 
1340 4733 4734 1 
1341 4733 5025 2 
1342 4992 4714 3 
1343 4992 4991 1 
1344 201 5703 2 
1345 5245 5246 1 
1346 5245 5961 2 
1347 232 466 3 
1348 232 231 1 
1349 5248 5247 1 
1350 5246 5248 3 
1351 231 5973 2 
1352 5182 4960 3 
1353 4960 4959 1 
1354 971 972 1 
1355 5982 508 3 
1356 5982 5981 1 
1357 463 971 2 
1358 254 5982 3 
1359 254 253 1 
1360 254 6026 3 
1361 6026 5982 3 
1362 6026 6025 1 
1363 6238 6250 3 
1364 6238 6237 1 
1365 438 6238 3 
1366 438 437 1 
1367 438 504 3 
1368 438 6250 3 
1369 6250 504 3 
1370 6250 6249 1 
1371 504 6238 3 
1372 504 503 1 
1373 45 5999 2 
1374 45 46 1 
1375 750 734 3 
1376 750 749 1 
1377 476 972 3 
1378 476 750 3 
1379 734 1004 3 
1380 734 733 1 
1381 734 972 3 
1382 972 1004 3 
1383 1004 750 3 
1384 1004 1003 1 
1385 988 260 3 
1386 46 5730 3 
1387 5730 5729 1 
1388 260 259 1 
1389 260 476 3 
1390 2229 2230 1 
1391 1253 1981 2 
1392 2230 2462 3 
1393 1466 1238 3 
1394 1238 1237 1 
1395 2752 2260 3 
1396 3492 3254 3 
1397 3485 3507 2 
1398 3485 3486 1 
1399 3774 4260 3 
1400 3774 3773 1 
1401 3774 4970 3 
1402 3774 4480 3 
1403 3773 4747 2 
1404 4259 4721 2 
1405 4016 4232 3 
1406 4232 4231 1 
1407 4508 4507 1 
1408 4284 5222 3 
1409 4284 4283 1 
1410 4284 4722 3 
1411 4284 4990 3 
1412 4252 4508 3 
1413 4722 4990 3 
1414 4722 4721 1 
1415 4223 4224 1 
1416 4223 4757 2 
1417 4978 5510 3 
1418 4978 4977 1 
1419 5510 3752 3 
1420 5510 5509 1 
1421 4522 5026 3 
1422 4522 4521 1 
1423 4522 5506 3 
1424 5026 4280 3 
1425 5026 5025 1 
1426 5506 5026 3 
1427 5506 5505 1 
1428 4280 4522 3 
1429 4280 4279 1 
1430 4280 5506 3 
1431 230 5992 3 
1432 230 229 1 
1433 13 229 2 
1434 5974 226 3 
1435 5974 5973 1 
1436 226 236 3 
1437 226 225 1 
1438 236 242 3 
1439 236 5974 3 
1440 236 235 1 
1441 242 5974 3 
1442 242 226 3 
1443 242 241 1 
1444 508 254 3 
1445 508 507 1 
1446 508 6026 3 
1447 5732 266 3 
1448 5731 5732 1 
1449 5981 6007 2 
1450 243 475 2 
1451 475 476 1 
1452 1011 1483 2 
1453 259 753 2 
1454 5 733 2 
1455 753 754 1 
1456 506 234 3 
1457 1240 6 3 
1458 234 233 1 
1459 754 756 3 
1460 756 755 1 
1461 1729 2229 2 
1462 2260 2259 1 
1463 2972 2242 3 
1464 2972 2971 1 
1465 2224 2972 3 
1466 2224 2223 1 
1467 2242 2224 3 
1468 2242 2241 1 
1469 3812 3016 3 
1470 3812 3811 1 
1471 3016 3798 3 
1472 3016 3015 1 
1473 3798 3812 3 
1474 3798 3797 1 
1475 3015 3525 2 
1476 3526 3525 1 
1477 5027 5028 1 
1478 4462 4748 3 
1479 4462 4461 1 
1480 4748 4530 3 
1481 4748 4747 1 
1482 5222 4722 3 
1483 5222 5221 1 
1484 4757 4758 1 
1485 4758 4724 3 
1486 4724 4723 1 
1487 4990 5222 3 
1488 4990 4989 1 
1489 5233 5509 2 
1490 5499 5505 2 
1491 5507 5508 1 
1492 6228 5480 3 
1493 6228 6227 1 
1494 14 6228 3 
1495 14 13 1 
1496 14 6226 3 
1497 5480 14 3 
1498 5480 5479 1 
1499 6226 5480 3 
1500 6226 6225 1 
1501 6226 6228 3 
1502 241 5709 2 
1503 266 265 1 
1504 225 6025 2 
1505 489 519 2 
1506 256 488 3 
1507 256 255 1 
1508 26 256 3 
1509 26 25 1 
1510 244 243 1 
1511 6002 244 3 
1512 487 6041 2 
1513 1012 782 3 
1514 1012 1011 1 
1515 1012 1030 3 
1516 1012 1276 3 
1517 1030 782 3 
1518 1030 1029 1 
1519 782 1276 3 
1520 782 781 1 
1521 1276 1030 3 
1522 1276 1275 1 
1523 6001 6002 1 
1524 6001 6009 2 
1525 490 5754 3 
1526 490 489 1 
1527 5754 5518 3 
1528 5754 5753 1 
1529 5518 490 3 
1530 5518 5517 1 
1531 6065 6066 1 
1532 764 310 3 
1533 310 309 1 
1534 515 516 1 
1535 515 1263 2 
1536 509 1243 2 
1537 1024 1023 1 
1538 766 470 3 
1539 766 765 1 
1540 284 283 1 
1541 284 502 3 
1542 502 1022 3 
1543 502 516 3 
1544 781 1523 2 
1545 3 747 2 
1546 485 1239 2 
1547 4 1500 3 
1548 4 3 1 
1549 4 1750 3 
1550 4 1524 3 
1551 1500 1524 3 
1552 1500 1499 1 
1553 1524 1750 3 
1554 1524 1523 1 
1555 1259 1269 2 
1556 1750 1500 3 
1557 1750 1749 1 
1558 510 766 3 
1559 510 509 1 
1560 1239 1240 1 
1561 492 766 3 
1562 492 491 1 
1563 492 510 3 
1564 470 510 3 
1565 470 469 1 
1566 470 492 3 
1567 974 714 3 
1568 974 973 1 
1569 974 1264 3 
1570 974 1756 3 
1571 1770 1270 3 
1572 1013 1241 2 
1573 1279 2019 2 
1574 1228 1000 3 
1575 1228 1227 1 
1576 1724 1748 3 
1577 1724 1723 1 
1578 1724 2012 3 
1579 1748 1766 3 
1580 1748 1747 1 
1581 2012 1748 3 
1582 2012 2011 1 
1583 1766 1724 3 
1584 1766 1765 1 
1585 1766 2012 3 
1586 1008 1280 3 
1587 1008 1007 1 
1588 1008 1508 3 
1589 1280 1786 3 
1590 1280 1279 1 
1591 1786 1008 3 
1592 1786 1785 1 
1593 1508 1280 3 
1594 1508 1507 1 
1595 1508 1786 3 
1596 1512 534 3 
1597 534 533 1 
1598 2525 2785 2 
1599 2785 2786 1 
1600 1752 1751 1 
1601 2280 2279 1 
1602 2280 2492 3 
1603 2280 2786 3 
1604 2279 2509 2 
1605 2742 1752 3 
1606 2269 2981 2 
1607 2254 2280 3 
1608 2254 2786 3 
1609 2018 2508 3 
1610 2018 2017 1 
1611 2018 2754 3 
1612 2508 2276 3 
1613 2508 2507 1 
1614 2508 2754 3 
1615 2754 2276 3 
1616 2754 2753 1 
1617 3017 3018 1 
1618 2481 2482 1 
1619 2481 3017 2 
1620 3986 3510 3 
1621 3986 3985 1 
1622 3010 3986 3 
1623 3010 3009 1 
1624 2791 3267 2 
1625 2251 2489 2 
1626 2535 3001 2 
1627 2017 2513 2 
1628 2495 2496 1 
1629 2261 2771 2 
1630 3006 2992 3 
1631 3006 3005 1 
1632 3002 2778 3 
1633 3002 3001 1 
1634 3002 3006 3 
1635 2778 3006 3 
1636 2778 2777 1 
1637 2992 2778 3 
1638 2992 2991 1 
1639 2992 3002 3 
1640 3261 3545 2 
1641 3303 3304 1 
1642 2490 2248 3 
1643 2490 2489 1 
1644 2490 3448 3 
1645 2995 3009 2 
1646 3227 3303 2 
1647 3756 3004 3 
1648 3756 3755 1 
1649 3029 4023 2 
1650 3030 3756 3 
1651 3030 3029 1 
1652 3030 3278 3 
1653 3278 4258 3 
1654 3278 3522 3 
1655 3522 3521 1 
1656 4258 3522 3 
1657 3269 3270 1 
1658 3543 3811 2 
1659 2783 3269 2 
1660 2210 3970 3 
1661 2210 2209 1 
1662 4018 3506 3 
1663 4018 4017 1 
1664 4018 4726 3 
1665 4504 4018 3 
1666 4504 4503 1 
1667 4504 4726 3 
1668 4726 3506 3 
1669 4726 4725 1 
1670 3506 4504 3 
1671 3506 3505 1 
1672 4017 4285 2 
1673 3540 4524 3 
1674 4524 4523 1 
1675 3527 3528 1 
1676 3527 3777 2 
1677 3744 4744 3 
1678 3744 3743 1 
1679 3744 4290 3 
1680 3766 3744 3 
1681 3766 3765 1 
1682 3766 4290 3 
1683 4744 3766 3 
1684 4744 4743 1 
1685 4290 4744 3 
1686 4290 4289 1 
1687 4749 4750 1 
1688 4749 5045 2 
1689 4509 4727 2 
1690 4515 4741 2 
1691 5493 5494 1 
1692 3771 4723 2 
1693 4243 4495 2 
1694 4999 5237 2 
1695 4742 4762 3 
1696 4742 4741 1 
1697 4742 5984 3 
1698 5763 6245 2 
1699 5242 4742 3 
1700 5242 5241 1 
1701 4496 4996 3 
1702 4496 4495 1 
1703 5508 4994 3 
1704 4994 4993 1 
1705 4735 4736 1 
1706 4493 4735 2 
1707 5013 5014 1 
1708 6019 6225 2 
1709 530 208 3 
1710 6020 5770 3 
1711 6020 6019 1 
1712 5770 5512 3 
1713 5770 5769 1 
1714 5512 6020 3 
1715 5512 5511 1 
1716 208 207 1 
1717 5742 5256 3 
1718 5742 5741 1 
1719 27 6033 2 
1720 5255 5747 2 
1721 488 26 3 
1722 488 487 1 
1723 6018 474 3 
1724 6018 6017 1 
1725 24 474 3 
1726 24 23 1 
1727 24 6018 3 
1728 24 6014 3 
1729 5783 5795 2 
1730 5783 5784 1 
1731 16 6034 3 
1732 16 15 1 
1733 474 6014 3 
1734 474 473 1 
1735 6014 6018 3 
1736 6014 6013 1 
1737 6232 5472 3 
1738 6232 6231 1 
1739 500 16 3 
1740 500 499 1 
1741 6034 500 3 
1742 6034 6033 1 
1743 5748 5734 3 
1744 5748 5747 1 
1745 5748 6232 3 
1746 5472 5748 3 
1747 5472 5471 1 
1748 5734 5472 3 
1749 5734 5733 1 
1750 5734 6232 3 
1751 246 532 3 
1752 246 245 1 
1753 280 246 3 
1754 280 279 1 
1755 532 280 3 
1756 532 531 1 
1757 21 22 1 
1758 21 511 2 