ITEM: TIMESTEP
3520
ITEM: NUMBER OF ENTRIES
3125
ITEM: BOX BOUNDS pp pp ff
0.0000000000000000e+00 7.2168784000000002e+01
0.0000000000000000e+00 7.2168784000000002e+01
0.0000000000000000e+00 1.2000000000000000e+01
ITEM: ENTRIES index c_1[1] c_1[2] c_1[3]
1 1251 1252 1 
2 1003 1004 1 
3 1011 1012 1 
4 1755 1756 1 
5 1503 1504 1 
6 1753 1754 1 
7 1761 1762 1 
8 2011 2012 1 
9 2001 2002 1 
10 2481 2482 1 
11 2251 2252 1 
12 2761 2762 1 
13 3251 3252 1 
14 3241 3242 1 
15 3011 3012 1 
16 3003 3004 1 
17 3755 3756 1 
18 3761 3762 1 
19 4001 4002 1 
20 3751 3752 1 
21 4253 4254 1 
22 4761 4762 1 
23 4751 4752 1 
24 5001 5002 1 
25 5253 5254 1 
26 5013 5014 1 
27 5251 5252 1 
28 5003 5004 1 
29 5511 5512 1 
30 5741 5742 1 
31 5753 5754 1 
32 265 266 1 
33 523 524 1 
34 271 272 1 
35 501 502 1 
36 761 762 1 
37 1021 1022 1 
38 1281 1282 1 
39 1263 1264 1 
40 1511 1512 1 
41 2281 2282 1 
42 2273 2274 1 
43 2285 2286 1 
44 2511 2512 1 
45 2763 2764 1 
46 2521 2522 1 
47 3021 3022 1 
48 3511 3512 1 
49 3771 3772 1 
50 4011 4012 1 
51 4513 4514 1 
52 4261 4262 1 
53 4523 4524 1 
54 4271 4272 1 
55 4511 4512 1 
56 4527 4528 1 
57 4771 4772 1 
58 5015 5016 1 
59 5261 5262 1 
60 5533 5534 1 
61 5263 5264 1 
62 5761 5762 1 
63 5513 5514 1 
64 11 12 1 
65 6011 6012 1 
66 6033 6034 1 
67 6021 6022 1 
68 6041 6042 1 
69 283 284 1 
70 31 32 1 
71 23 24 1 
72 33 34 1 
73 531 532 1 
74 281 282 1 
75 775 776 1 
76 1023 1024 1 
77 1033 1034 1 
78 1271 1272 1 
79 1771 1772 1 
80 1521 1522 1 
81 2033 2034 1 
82 1773 1774 1 
83 2283 2284 1 
84 2271 2272 1 
85 3023 3024 1 
86 2513 2514 1 
87 2771 2772 1 
88 2783 2784 1 
89 3261 3262 1 
90 3531 3532 1 
91 3281 3282 1 
92 3535 3536 1 
93 3781 3782 1 
94 4031 4032 1 
95 4277 4278 1 
96 4281 4282 1 
97 4533 4534 1 
98 4283 4284 1 
99 4763 4764 1 
100 4783 4784 1 
101 5011 5012 1 
102 5271 5272 1 
103 5531 5532 1 
104 5791 5792 1 
105 5783 5784 1 
106 21 22 1 
107 295 296 1 
108 781 782 1 
109 791 792 1 
110 1043 1044 1 
111 799 800 1 
112 1543 1544 1 
113 1781 1782 1 
114 2041 2042 1 
115 2031 2032 1 
116 1795 1796 1 
117 1791 1792 1 
118 2021 2022 1 
119 2541 2542 1 
120 2535 2536 1 
121 2523 2524 1 
122 2531 2532 1 
123 2791 2792 1 
124 3043 3044 1 
125 3031 3032 1 
126 3541 3542 1 
127 3543 3544 1 
128 3291 3292 1 
129 4301 4302 1 
130 4541 4542 1 
131 4791 4792 1 
132 5031 5032 1 
133 5291 5292 1 
134 5041 5042 1 
135 5543 5544 1 
136 5295 5296 1 
137 5541 5542 1 
138 5293 5294 1 
139 6031 6032 1 
140 41 42 1 
141 51 52 1 
142 533 534 1 
143 543 544 1 
144 301 302 1 
145 553 554 1 
146 1053 1054 1 
147 801 802 1 
148 803 804 1 
149 815 816 1 
150 793 794 1 
151 1295 1296 1 
152 1541 1542 1 
153 1301 1302 1 
154 1293 1294 1 
155 1303 1304 1 
156 1291 1292 1 
157 2061 2062 1 
158 1551 1552 1 
159 2301 2302 1 
160 2291 2292 1 
161 2801 2802 1 
162 2803 2804 1 
163 3051 3052 1 
164 2551 2552 1 
165 3293 3294 1 
166 3283 3284 1 
167 3791 3792 1 
168 3303 3304 1 
169 4051 4052 1 
170 4291 4292 1 
171 4551 4552 1 
172 4801 4802 1 
173 4303 4304 1 
174 4813 4814 1 
175 5051 5052 1 
176 5801 5802 1 
177 6051 6052 1 
178 5793 5794 1 
179 5803 5804 1 
180 6063 6064 1 
181 6061 6062 1 
182 71 72 1 
183 313 314 1 
184 563 564 1 
185 561 562 1 
186 1063 1064 1 
187 1561 1562 1 
188 1311 1312 1 
189 1821 1822 1 
190 2051 2052 1 
191 2311 2312 1 
192 2303 2304 1 
193 2571 2572 1 
194 2561 2562 1 
195 3061 3062 1 
196 2813 2814 1 
197 2821 2822 1 
198 3321 3322 1 
199 3551 3552 1 
200 3313 3314 1 
201 3311 3312 1 
202 3301 3302 1 
203 3563 3564 1 
204 4061 4062 1 
205 4053 4054 1 
206 4823 4824 1 
207 4811 4812 1 
208 5301 5302 1 
209 5811 5812 1 
210 5563 5564 1 
211 5813 5814 1 
212 5823 5824 1 
213 321 322 1 
214 83 84 1 
215 331 332 1 
216 1071 1072 1 
217 1563 1564 1 
218 1573 1574 1 
219 1571 1572 1 
220 2075 2076 1 
221 2073 2074 1 
222 2583 2584 1 
223 2563 2564 1 
224 2823 2824 1 
225 3071 3072 1 
226 3085 3086 1 
227 3561 3562 1 
228 3565 3566 1 
229 3571 3572 1 
230 3581 3582 1 
231 3821 3822 1 
232 4071 4072 1 
233 4321 4322 1 
234 4581 4582 1 
235 4333 4334 1 
236 4571 4572 1 
237 4331 4332 1 
238 4573 4574 1 
239 4825 4826 1 
240 5071 5072 1 
241 5321 5322 1 
242 5331 5332 1 
243 5327 5328 1 
244 5561 5562 1 
245 5581 5582 1 
246 5573 5574 1 
247 5593 5594 1 
248 5821 5822 1 
249 81 82 1 
250 341 342 1 
251 831 832 1 
252 601 602 1 
253 821 822 1 
254 1323 1324 1 
255 833 834 1 
256 843 844 1 
257 841 842 1 
258 1591 1592 1 
259 1341 1342 1 
260 1831 1832 1 
261 1581 1582 1 
262 1843 1844 1 
263 2341 2342 1 
264 2321 2322 1 
265 2331 2332 1 
266 2581 2582 1 
267 2591 2592 1 
268 2851 2852 1 
269 3081 3082 1 
270 2833 2834 1 
271 3095 3096 1 
272 3343 3344 1 
273 3341 3342 1 
274 3331 3332 1 
275 3593 3594 1 
276 3591 3592 1 
277 4081 4082 1 
278 4341 4342 1 
279 4821 4822 1 
280 4831 4832 1 
281 5091 5092 1 
282 5345 5346 1 
283 5571 5572 1 
284 5841 5842 1 
285 6081 6082 1 
286 6083 6084 1 
287 6095 6096 1 
288 6085 6086 1 
289 333 334 1 
290 93 94 1 
291 343 344 1 
292 591 592 1 
293 1351 1352 1 
294 1605 1606 1 
295 1861 1862 1 
296 2333 2334 1 
297 2345 2346 1 
298 2351 2352 1 
299 2611 2612 1 
300 3091 3092 1 
301 3083 3084 1 
302 3361 3362 1 
303 3853 3854 1 
304 3851 3852 1 
305 3601 3602 1 
306 3841 3842 1 
307 3603 3604 1 
308 4093 4094 1 
309 4091 4092 1 
310 4853 4854 1 
311 4611 4612 1 
312 4591 4592 1 
313 4833 4834 1 
314 5341 5342 1 
315 5101 5102 1 
316 5351 5352 1 
317 5355 5356 1 
318 5601 5602 1 
319 5591 5592 1 
320 5851 5852 1 
321 101 102 1 
322 111 112 1 
323 113 114 1 
324 603 604 1 
325 605 606 1 
326 1091 1092 1 
327 1111 1112 1 
328 1101 1102 1 
329 1601 1602 1 
330 1361 1362 1 
331 1353 1354 1 
332 1853 1854 1 
333 1863 1864 1 
334 2111 2112 1 
335 2101 2102 1 
336 2861 2862 1 
337 3351 3352 1 
338 2857 2858 1 
339 4103 4104 1 
340 4101 4102 1 
341 4111 4112 1 
342 4851 4852 1 
343 5353 5354 1 
344 5363 5364 1 
345 5611 5612 1 
346 5843 5844 1 
347 351 352 1 
348 123 124 1 
349 103 104 1 
350 371 372 1 
351 365 366 1 
352 877 878 1 
353 875 876 1 
354 613 614 1 
355 1121 1122 1 
356 1371 1372 1 
357 621 622 1 
358 1363 1364 1 
359 1373 1374 1 
360 1611 1612 1 
361 1623 1624 1 
362 1615 1616 1 
363 2121 2122 1 
364 2373 2374 1 
365 2363 2364 1 
366 3111 3112 1 
367 3131 3132 1 
368 3373 3374 1 
369 3381 3382 1 
370 3611 3612 1 
371 3871 3872 1 
372 4121 4122 1 
373 4113 4114 1 
374 4371 4372 1 
375 3875 3876 1 
376 4871 4872 1 
377 4881 4882 1 
378 5121 5122 1 
379 4883 4884 1 
380 5375 5376 1 
381 5371 5372 1 
382 5621 5622 1 
383 5637 5638 1 
384 6121 6122 1 
385 5873 5874 1 
386 121 122 1 
387 131 132 1 
388 611 612 1 
389 623 624 1 
390 871 872 1 
391 1621 1622 1 
392 1131 1132 1 
393 1881 1882 1 
394 2381 2382 1 
395 2383 2384 1 
396 2631 2632 1 
397 2883 2884 1 
398 2881 2882 1 
399 2893 2894 1 
400 3371 3372 1 
401 3375 3376 1 
402 3633 3634 1 
403 4133 4134 1 
404 3881 3882 1 
405 3893 3894 1 
406 4381 4382 1 
407 4391 4392 1 
408 5133 5134 1 
409 5131 5132 1 
410 5127 5128 1 
411 5373 5374 1 
412 5871 5872 1 
413 5383 5384 1 
414 5625 5626 1 
415 5633 5634 1 
416 5891 5892 1 
417 6131 6132 1 
418 6125 6126 1 
419 141 142 1 
420 151 152 1 
421 143 144 1 
422 643 644 1 
423 891 892 1 
424 653 654 1 
425 1383 1384 1 
426 1631 1632 1 
427 1393 1394 1 
428 1143 1144 1 
429 1641 1642 1 
430 1651 1652 1 
431 2143 2144 1 
432 2141 2142 1 
433 1891 1892 1 
434 2133 2134 1 
435 2651 2652 1 
436 1893 1894 1 
437 2393 2394 1 
438 2871 2872 1 
439 3133 3134 1 
440 3143 3144 1 
441 3141 3142 1 
442 3391 3392 1 
443 3393 3394 1 
444 3621 3622 1 
445 3901 3902 1 
446 4135 4136 1 
447 4635 4636 1 
448 4641 4642 1 
449 5141 5142 1 
450 4891 4892 1 
451 5151 5152 1 
452 5401 5402 1 
453 5381 5382 1 
454 5393 5394 1 
455 5641 5642 1 
456 5391 5392 1 
457 6141 6142 1 
458 6143 6144 1 
459 161 162 1 
460 911 912 1 
461 391 392 1 
462 413 414 1 
463 901 902 1 
464 651 652 1 
465 903 904 1 
466 1151 1152 1 
467 1401 1402 1 
468 1901 1902 1 
469 2151 2152 1 
470 2901 2902 1 
471 2653 2654 1 
472 2903 2904 1 
473 3151 3152 1 
474 3643 3644 1 
475 3161 3162 1 
476 3155 3156 1 
477 2911 2912 1 
478 3401 3402 1 
479 3153 3154 1 
480 3653 3654 1 
481 4151 4152 1 
482 5143 5144 1 
483 4903 4904 1 
484 5153 5154 1 
485 4901 4902 1 
486 5663 5664 1 
487 5403 5404 1 
488 5651 5652 1 
489 6151 6152 1 
490 401 402 1 
491 411 412 1 
492 913 914 1 
493 907 908 1 
494 1425 1426 1 
495 1675 1676 1 
496 1661 1662 1 
497 1911 1912 1 
498 1671 1672 1 
499 2161 2162 1 
500 2421 2422 1 
501 2171 2172 1 
502 2173 2174 1 
503 2661 2662 1 
504 3673 3674 1 
505 3661 3662 1 
506 4163 4164 1 
507 3911 3912 1 
508 4413 4414 1 
509 4401 4402 1 
510 4411 4412 1 
511 4661 4662 1 
512 4673 4674 1 
513 4415 4416 1 
514 4913 4914 1 
515 4911 4912 1 
516 5431 5432 1 
517 5163 5164 1 
518 6163 6164 1 
519 6171 6172 1 
520 5901 5902 1 
521 5921 5922 1 
522 6161 6162 1 
523 163 164 1 
524 421 422 1 
525 431 432 1 
526 661 662 1 
527 1171 1172 1 
528 933 934 1 
529 925 926 1 
530 1431 1432 1 
531 1421 1422 1 
532 1183 1184 1 
533 1423 1424 1 
534 1681 1682 1 
535 1923 1924 1 
536 2181 2182 1 
537 2411 2412 1 
538 2663 2664 1 
539 2191 2192 1 
540 2681 2682 1 
541 2933 2934 1 
542 2931 2932 1 
543 3171 3172 1 
544 3411 3412 1 
545 3423 3424 1 
546 3427 3428 1 
547 3671 3672 1 
548 3421 3422 1 
549 3923 3924 1 
550 4161 4162 1 
551 3921 3922 1 
552 4431 4432 1 
553 4681 4682 1 
554 4931 4932 1 
555 4921 4922 1 
556 5171 5172 1 
557 5443 5444 1 
558 5911 5912 1 
559 5671 5672 1 
560 5681 5682 1 
561 5933 5934 1 
562 5935 5936 1 
563 443 444 1 
564 693 694 1 
565 681 682 1 
566 931 932 1 
567 943 944 1 
568 1181 1182 1 
569 941 942 1 
570 1691 1692 1 
571 1441 1442 1 
572 1191 1192 1 
573 1941 1942 1 
574 1693 1694 1 
575 1453 1454 1 
576 2193 2194 1 
577 2431 2432 1 
578 2183 2184 1 
579 2691 2692 1 
580 2683 2684 1 
581 2693 2694 1 
582 2925 2926 1 
583 3183 3184 1 
584 3431 3432 1 
585 2945 2946 1 
586 3931 3932 1 
587 3691 3692 1 
588 4671 4672 1 
589 4445 4446 1 
590 4423 4424 1 
591 4683 4684 1 
592 4941 4942 1 
593 5193 5194 1 
594 5201 5202 1 
595 5183 5184 1 
596 5693 5694 1 
597 5941 5942 1 
598 5931 5932 1 
599 6183 6184 1 
600 6181 6182 1 
601 6191 6192 1 
602 441 442 1 
603 203 204 1 
604 701 702 1 
605 951 952 1 
606 1683 1684 1 
607 1203 1204 1 
608 1951 1952 1 
609 1701 1702 1 
610 1943 1944 1 
611 2195 2196 1 
612 2201 2202 1 
613 2451 2452 1 
614 2701 2702 1 
615 2703 2704 1 
616 2721 2722 1 
617 3193 3194 1 
618 3191 3192 1 
619 2951 2952 1 
620 2953 2954 1 
621 3203 3204 1 
622 3443 3444 1 
623 3201 3202 1 
624 3703 3704 1 
625 3701 3702 1 
626 3713 3714 1 
627 4191 4192 1 
628 3711 3712 1 
629 3951 3952 1 
630 3943 3944 1 
631 4211 4212 1 
632 4943 4944 1 
633 4955 4956 1 
634 4953 4954 1 
635 5441 5442 1 
636 5205 5206 1 
637 5953 5954 1 
638 5951 5952 1 
639 5955 5956 1 
640 191 192 1 
641 211 212 1 
642 221 222 1 
643 451 452 1 
644 471 472 1 
645 453 454 1 
646 463 464 1 
647 713 714 1 
648 961 962 1 
649 461 462 1 
650 971 972 1 
651 1201 1202 1 
652 1463 1464 1 
653 1711 1712 1 
654 2213 2214 1 
655 3221 3222 1 
656 3475 3476 1 
657 3451 3452 1 
658 4463 4464 1 
659 4203 4204 1 
660 4461 4462 1 
661 4471 4472 1 
662 4711 4712 1 
663 4963 4964 1 
664 4961 4962 1 
665 5451 5452 1 
666 4965 4966 1 
667 4975 4976 1 
668 5711 5712 1 
669 5463 5464 1 
670 5961 5962 1 
671 5473 5474 1 
672 5723 5724 1 
673 5713 5714 1 
674 481 482 1 
675 731 732 1 
676 953 954 1 
677 1221 1222 1 
678 1461 1462 1 
679 1211 1212 1 
680 1991 1992 1 
681 1473 1474 1 
682 2211 2212 1 
683 1971 1972 1 
684 1721 1722 1 
685 1961 1962 1 
686 2223 2224 1 
687 2973 2974 1 
688 2971 2972 1 
689 3463 3464 1 
690 3471 3472 1 
691 3223 3224 1 
692 3963 3964 1 
693 3971 3972 1 
694 4201 4202 1 
695 4473 4474 1 
696 4483 4484 1 
697 4721 4722 1 
698 4731 4732 1 
699 4723 4724 1 
700 5213 5214 1 
701 5971 5972 1 
702 6221 6222 1 
703 6211 6212 1 
704 5727 5728 1 
705 213 214 1 
706 223 224 1 
707 721 722 1 
708 473 474 1 
709 491 492 1 
710 483 484 1 
711 991 992 1 
712 723 724 1 
713 983 984 1 
714 1231 1232 1 
715 1223 1224 1 
716 1481 1482 1 
717 1731 1732 1 
718 1233 1234 1 
719 1485 1486 1 
720 1733 1734 1 
721 1993 1994 1 
722 1981 1982 1 
723 2233 2234 1 
724 1983 1984 1 
725 2231 2232 1 
726 2471 2472 1 
727 2221 2222 1 
728 2491 2492 1 
729 2473 2474 1 
730 2731 2732 1 
731 2991 2992 1 
732 3231 3232 1 
733 3483 3484 1 
734 3491 3492 1 
735 3721 3722 1 
736 3731 3732 1 
737 4231 4232 1 
738 3991 3992 1 
739 4221 4222 1 
740 4481 4482 1 
741 5241 5242 1 
742 5221 5222 1 
743 5481 5482 1 
744 5491 5492 1 
745 5731 5732 1 
746 5981 5982 1 
747 6213 6214 1 
748 6231 6232 1 
749 231 232 1 
750 981 982 1 
751 1241 1242 1 
752 751 752 1 
753 1001 1002 1 
754 1493 1494 1 
755 1253 1254 1 
756 1741 1742 1 
757 2241 2242 1 
758 1743 1744 1 
759 2243 2244 1 
760 2003 2004 1 
761 2501 2502 1 
762 2741 2742 1 
763 2475 2476 1 
764 2751 2752 1 
765 2743 2744 1 
766 2981 2982 1 
767 3001 3002 1 
768 3481 3482 1 
769 3493 3494 1 
770 3243 3244 1 
771 3253 3254 1 
772 3501 3502 1 
773 3741 3742 1 
774 3743 3744 1 
775 4491 4492 1 
776 4743 4744 1 
777 4735 4736 1 
778 4251 4252 1 
779 4501 4502 1 
780 4981 4982 1 
781 4741 4742 1 
782 4983 4984 1 
783 4753 4754 1 
784 5493 5494 1 
785 5751 5752 1 
786 5733 5734 1 
787 5501 5502 1 
788 5255 5256 1 
789 6223 6224 1 
790 5993 5994 1 
791 251 252 1 
792 3 4 1 
793 253 254 1 
794 499 500 1 
795 511 512 1 
796 507 508 1 
797 771 772 1 
798 513 514 1 
799 765 766 1 
800 1243 1244 1 
801 1523 1524 1 
802 1255 1256 1 
803 1763 1764 1 
804 1265 1266 1 
805 1513 1514 1 
806 2017 2018 1 
807 1751 1752 1 
808 2261 2262 1 
809 2257 2258 1 
810 2255 2256 1 
811 2495 2496 1 
812 2505 2506 1 
813 2769 2770 1 
814 2503 2504 1 
815 2517 2518 1 
816 3005 3006 1 
817 3015 3016 1 
818 2767 2768 1 
819 3017 3018 1 
820 3519 3520 1 
821 3503 3504 1 
822 3753 3754 1 
823 3513 3514 1 
824 3757 3758 1 
825 3995 3996 1 
826 4263 4264 1 
827 4007 4008 1 
828 4503 4504 1 
829 4505 4506 1 
830 4775 4776 1 
831 5017 5018 1 
832 5517 5518 1 
833 4765 4766 1 
834 5749 5750 1 
835 5005 5006 1 
836 5499 5500 1 
837 5755 5756 1 
838 6003 6004 1 
839 6001 6002 1 
840 5765 5766 1 
841 5983 5984 1 
842 6245 6246 1 
843 13 14 1 
844 261 262 1 
845 263 264 1 
846 763 764 1 
847 517 518 1 
848 269 270 1 
849 267 268 1 
850 1013 1014 1 
851 1261 1262 1 
852 1277 1278 1 
853 1273 1274 1 
854 1017 1018 1 
855 1505 1506 1 
856 1267 1268 1 
857 1765 1766 1 
858 1775 1776 1 
859 1779 1780 1 
860 1515 1516 1 
861 1525 1526 1 
862 2013 2014 1 
863 2023 2024 1 
864 2025 2026 1 
865 2533 2534 1 
866 2519 2520 1 
867 2765 2766 1 
868 2777 2778 1 
869 2515 2516 1 
870 3013 3014 1 
871 2775 2776 1 
872 3267 3268 1 
873 3523 3524 1 
874 3273 3274 1 
875 3265 3266 1 
876 3529 3530 1 
877 3525 3526 1 
878 3763 3764 1 
879 3765 3766 1 
880 3775 3776 1 
881 4013 4014 1 
882 4275 4276 1 
883 4023 4024 1 
884 4021 4022 1 
885 4521 4522 1 
886 4519 4520 1 
887 4267 4268 1 
888 4515 4516 1 
889 4773 4774 1 
890 4525 4526 1 
891 4745 4746 1 
892 4777 4778 1 
893 5007 5008 1 
894 5029 5030 1 
895 5025 5026 1 
896 5285 5286 1 
897 5521 5522 1 
898 5515 5516 1 
899 5523 5524 1 
900 5021 5022 1 
901 5763 5764 1 
902 5771 5772 1 
903 5777 5778 1 
904 6013 6014 1 
905 5773 5774 1 
906 29 30 1 
907 9 10 1 
908 6015 6016 1 
909 25 26 1 
910 273 274 1 
911 521 522 1 
912 527 528 1 
913 535 536 1 
914 537 538 1 
915 525 526 1 
916 773 774 1 
917 783 784 1 
918 1531 1532 1 
919 1535 1536 1 
920 1279 1280 1 
921 1783 1784 1 
922 1533 1534 1 
923 2027 2028 1 
924 2263 2264 1 
925 2525 2526 1 
926 2773 2774 1 
927 2275 2276 1 
928 2289 2290 1 
929 2277 2278 1 
930 2527 2528 1 
931 2781 2782 1 
932 3035 3036 1 
933 2789 2790 1 
934 3289 3290 1 
935 3521 3522 1 
936 3263 3264 1 
937 3271 3272 1 
938 3537 3538 1 
939 3773 3774 1 
940 3783 3784 1 
941 4035 4036 1 
942 4039 4040 1 
943 4025 4026 1 
944 4045 4046 1 
945 4273 4274 1 
946 4279 4280 1 
947 4539 4540 1 
948 4531 4532 1 
949 4785 4786 1 
950 4795 4796 1 
951 5023 5024 1 
952 4781 4782 1 
953 5277 5278 1 
954 5273 5274 1 
955 5035 5036 1 
956 5275 5276 1 
957 5283 5284 1 
958 5281 5282 1 
959 5525 5526 1 
960 5775 5776 1 
961 5779 5780 1 
962 6025 6026 1 
963 5527 5528 1 
964 5797 5798 1 
965 6023 6024 1 
966 35 36 1 
967 5787 5788 1 
968 6029 6030 1 
969 291 292 1 
970 293 294 1 
971 55 56 1 
972 541 542 1 
973 795 796 1 
974 1035 1036 1 
975 1041 1042 1 
976 1031 1032 1 
977 1285 1286 1 
978 1553 1554 1 
979 1545 1546 1 
980 1283 1284 1 
981 1537 1538 1 
982 2043 2044 1 
983 1789 1790 1 
984 1547 1548 1 
985 2293 2294 1 
986 2555 2556 1 
987 2295 2296 1 
988 3041 3042 1 
989 2545 2546 1 
990 2805 2806 1 
991 2793 2794 1 
992 2795 2796 1 
993 3045 3046 1 
994 2797 2798 1 
995 3047 3048 1 
996 3049 3050 1 
997 3025 3026 1 
998 3033 3034 1 
999 3533 3534 1 
1000 3547 3548 1 
1001 3285 3286 1 
1002 3287 3288 1 
1003 3793 3794 1 
1004 3805 3806 1 
1005 3785 3786 1 
1006 4041 4042 1 
1007 4033 4034 1 
1008 4537 4538 1 
1009 4545 4546 1 
1010 5287 5288 1 
1011 5055 5056 1 
1012 5033 5034 1 
1013 5299 5300 1 
1014 5553 5554 1 
1015 5545 5546 1 
1016 5549 5550 1 
1017 5781 5782 1 
1018 5785 5786 1 
1019 6047 6048 1 
1020 45 46 1 
1021 43 44 1 
1022 59 60 1 
1023 311 312 1 
1024 315 316 1 
1025 1051 1052 1 
1026 551 552 1 
1027 813 814 1 
1028 807 808 1 
1029 805 806 1 
1030 1045 1046 1 
1031 1047 1048 1 
1032 1055 1056 1 
1033 1555 1556 1 
1034 1309 1310 1 
1035 1569 1570 1 
1036 1801 1802 1 
1037 1803 1804 1 
1038 2045 2046 1 
1039 1793 1794 1 
1040 2053 2054 1 
1041 1805 1806 1 
1042 2059 2060 1 
1043 2065 2066 1 
1044 2315 2316 1 
1045 2069 2070 1 
1046 2543 2544 1 
1047 2557 2558 1 
1048 2553 2554 1 
1049 2309 2310 1 
1050 2307 2308 1 
1051 2811 2812 1 
1052 2547 2548 1 
1053 3055 3056 1 
1054 3053 3054 1 
1055 3295 3296 1 
1056 3555 3556 1 
1057 3559 3560 1 
1058 3795 3796 1 
1059 3305 3306 1 
1060 3553 3554 1 
1061 3801 3802 1 
1062 4293 4294 1 
1063 4295 4296 1 
1064 4317 4318 1 
1065 4307 4308 1 
1066 4309 4310 1 
1067 4553 4554 1 
1068 4305 4306 1 
1069 4789 4790 1 
1070 5045 5046 1 
1071 4557 4558 1 
1072 4555 4556 1 
1073 4543 4544 1 
1074 5053 5054 1 
1075 5069 5070 1 
1076 4817 4818 1 
1077 5043 5044 1 
1078 5313 5314 1 
1079 5309 5310 1 
1080 5551 5552 1 
1081 5311 5312 1 
1082 5805 5806 1 
1083 5795 5796 1 
1084 6065 6066 1 
1085 6043 6044 1 
1086 6035 6036 1 
1087 6053 6054 1 
1088 6045 6046 1 
1089 323 324 1 
1090 57 58 1 
1091 63 64 1 
1092 303 304 1 
1093 565 566 1 
1094 1067 1068 1 
1095 305 306 1 
1096 581 582 1 
1097 571 572 1 
1098 575 576 1 
1099 827 828 1 
1100 811 812 1 
1101 1061 1062 1 
1102 1065 1066 1 
1103 817 818 1 
1104 1073 1074 1 
1105 1313 1314 1 
1106 1333 1334 1 
1107 1565 1566 1 
1108 1315 1316 1 
1109 1577 1578 1 
1110 1827 1828 1 
1111 1823 1824 1 
1112 2305 2306 1 
1113 2313 2314 1 
1114 2565 2566 1 
1115 1819 1820 1 
1116 2577 2578 1 
1117 2815 2816 1 
1118 2807 2808 1 
1119 3075 3076 1 
1120 3063 3064 1 
1121 3575 3576 1 
1122 3307 3308 1 
1123 3315 3316 1 
1124 3815 3816 1 
1125 4063 4064 1 
1126 3573 3574 1 
1127 4325 4326 1 
1128 4075 4076 1 
1129 3811 3812 1 
1130 4311 4312 1 
1131 4313 4314 1 
1132 3823 3824 1 
1133 4315 4316 1 
1134 4323 4324 1 
1135 4815 4816 1 
1136 4803 4804 1 
1137 4563 4564 1 
1138 5317 5318 1 
1139 5077 5078 1 
1140 4805 4806 1 
1141 5065 5066 1 
1142 5325 5326 1 
1143 5565 5566 1 
1144 5557 5558 1 
1145 5567 5568 1 
1146 5807 5808 1 
1147 6067 6068 1 
1148 5815 5816 1 
1149 65 66 1 
1150 73 74 1 
1151 75 76 1 
1152 61 62 1 
1153 325 326 1 
1154 87 88 1 
1155 77 78 1 
1156 335 336 1 
1157 823 824 1 
1158 579 580 1 
1159 1075 1076 1 
1160 1083 1084 1 
1161 835 836 1 
1162 1317 1318 1 
1163 1331 1332 1 
1164 1567 1568 1 
1165 1337 1338 1 
1166 1813 1814 1 
1167 1321 1322 1 
1168 1575 1576 1 
1169 1583 1584 1 
1170 1335 1336 1 
1171 2079 2080 1 
1172 2083 2084 1 
1173 1811 1812 1 
1174 2071 2072 1 
1175 2323 2324 1 
1176 2573 2574 1 
1177 2837 2838 1 
1178 2585 2586 1 
1179 2593 2594 1 
1180 2831 2832 1 
1181 2835 2836 1 
1182 3073 3074 1 
1183 3325 3326 1 
1184 2841 2842 1 
1185 3327 3328 1 
1186 2829 2830 1 
1187 3813 3814 1 
1188 3567 3568 1 
1189 3585 3586 1 
1190 3579 3580 1 
1191 3825 3826 1 
1192 3589 3590 1 
1193 3833 3834 1 
1194 3835 3836 1 
1195 4065 4066 1 
1196 4327 4328 1 
1197 4561 4562 1 
1198 4073 4074 1 
1199 4583 4584 1 
1200 4575 4576 1 
1201 4835 4836 1 
1202 4827 4828 1 
1203 4565 4566 1 
1204 5073 5074 1 
1205 4829 4830 1 
1206 5063 5064 1 
1207 5061 5062 1 
1208 5323 5324 1 
1209 5825 5826 1 
1210 5817 5818 1 
1211 6077 6078 1 
1212 6073 6074 1 
1213 6087 6088 1 
1214 6075 6076 1 
1215 85 86 1 
1216 91 92 1 
1217 105 106 1 
1218 6089 6090 1 
1219 337 338 1 
1220 585 586 1 
1221 593 594 1 
1222 589 590 1 
1223 583 584 1 
1224 597 598 1 
1225 845 846 1 
1226 837 838 1 
1227 587 588 1 
1228 829 830 1 
1229 1087 1088 1 
1230 1085 1086 1 
1231 1349 1350 1 
1232 1325 1326 1 
1233 1835 1836 1 
1234 1599 1600 1 
1235 2093 2094 1 
1236 2091 2092 1 
1237 2337 2338 1 
1238 2097 2098 1 
1239 2081 2082 1 
1240 2335 2336 1 
1241 2825 2826 1 
1242 3079 3080 1 
1243 3093 3094 1 
1244 2827 2828 1 
1245 2843 2844 1 
1246 3103 3104 1 
1247 3339 3340 1 
1248 3087 3088 1 
1249 3335 3336 1 
1250 3333 3334 1 
1251 3323 3324 1 
1252 3839 3840 1 
1253 3359 3360 1 
1254 3831 3832 1 
1255 3583 3584 1 
1256 3847 3848 1 
1257 4345 4346 1 
1258 3849 3850 1 
1259 4343 4344 1 
1260 5081 5082 1 
1261 4335 4336 1 
1262 4587 4588 1 
1263 4593 4594 1 
1264 5083 5084 1 
1265 5087 5088 1 
1266 5097 5098 1 
1267 4837 4838 1 
1268 5085 5086 1 
1269 5333 5334 1 
1270 5343 5344 1 
1271 5335 5336 1 
1272 5349 5350 1 
1273 5583 5584 1 
1274 5585 5586 1 
1275 5609 5610 1 
1276 5845 5846 1 
1277 5589 5590 1 
1278 6071 6072 1 
1279 5833 5834 1 
1280 6093 6094 1 
1281 6097 6098 1 
1282 6101 6102 1 
1283 107 108 1 
1284 6105 6106 1 
1285 353 354 1 
1286 349 350 1 
1287 851 852 1 
1288 849 850 1 
1289 595 596 1 
1290 855 856 1 
1291 1081 1082 1 
1292 853 854 1 
1293 847 848 1 
1294 1347 1348 1 
1295 865 866 1 
1296 1093 1094 1 
1297 1593 1594 1 
1298 1603 1604 1 
1299 1841 1842 1 
1300 1859 1860 1 
1301 1833 1834 1 
1302 2105 2106 1 
1303 2107 2108 1 
1304 2615 2616 1 
1305 2601 2602 1 
1306 2855 2856 1 
1307 2595 2596 1 
1308 2859 2860 1 
1309 2845 2846 1 
1310 3109 3110 1 
1311 3101 3102 1 
1312 3355 3356 1 
1313 3345 3346 1 
1314 3857 3858 1 
1315 4351 4352 1 
1316 3843 3844 1 
1317 4087 4088 1 
1318 4083 4084 1 
1319 4095 4096 1 
1320 3855 3856 1 
1321 3845 3846 1 
1322 4107 4108 1 
1323 4603 4604 1 
1324 4365 4366 1 
1325 4601 4602 1 
1326 4585 4586 1 
1327 4595 4596 1 
1328 4843 4844 1 
1329 4605 4606 1 
1330 5103 5104 1 
1331 5613 5614 1 
1332 5853 5854 1 
1333 5831 5832 1 
1334 6103 6104 1 
1335 5605 5606 1 
1336 5597 5598 1 
1337 5847 5848 1 
1338 5863 5864 1 
1339 6091 6092 1 
1340 95 96 1 
1341 6117 6118 1 
1342 125 126 1 
1343 357 358 1 
1344 369 370 1 
1345 363 364 1 
1346 615 616 1 
1347 1105 1106 1 
1348 863 864 1 
1349 869 870 1 
1350 867 868 1 
1351 1113 1114 1 
1352 1107 1108 1 
1353 1355 1356 1 
1354 1343 1344 1 
1355 1115 1116 1 
1356 1103 1104 1 
1357 1609 1610 1 
1358 1367 1368 1 
1359 1865 1866 1 
1360 1851 1852 1 
1361 1873 1874 1 
1362 2103 2104 1 
1363 2375 2376 1 
1364 2359 2360 1 
1365 2353 2354 1 
1366 2605 2606 1 
1367 2613 2614 1 
1368 2603 2604 1 
1369 2853 2854 1 
1370 2625 2626 1 
1371 2869 2870 1 
1372 3105 3106 1 
1373 3117 3118 1 
1374 3115 3116 1 
1375 3353 3354 1 
1376 3623 3624 1 
1377 3613 3614 1 
1378 3861 3862 1 
1379 4105 4106 1 
1380 3863 3864 1 
1381 4117 4118 1 
1382 4125 4126 1 
1383 4361 4362 1 
1384 4841 4842 1 
1385 4355 4356 1 
1386 4353 4354 1 
1387 4369 4370 1 
1388 4861 4862 1 
1389 4613 4614 1 
1390 5093 5094 1 
1391 4367 4368 1 
1392 5111 5112 1 
1393 4845 4846 1 
1394 4847 4848 1 
1395 5105 5106 1 
1396 4875 4876 1 
1397 5361 5362 1 
1398 5115 5116 1 
1399 5365 5366 1 
1400 5615 5616 1 
1401 5857 5858 1 
1402 5867 5868 1 
1403 5603 5604 1 
1404 5855 5856 1 
1405 5865 5866 1 
1406 6107 6108 1 
1407 361 362 1 
1408 6115 6116 1 
1409 117 118 1 
1410 625 626 1 
1411 881 882 1 
1412 873 874 1 
1413 861 862 1 
1414 1127 1128 1 
1415 1613 1614 1 
1416 1637 1638 1 
1417 1855 1856 1 
1418 2115 2116 1 
1419 2365 2366 1 
1420 2117 2118 1 
1421 2371 2372 1 
1422 2361 2362 1 
1423 2875 2876 1 
1424 2377 2378 1 
1425 2863 2864 1 
1426 2867 2868 1 
1427 2619 2620 1 
1428 2621 2622 1 
1429 2873 2874 1 
1430 2627 2628 1 
1431 2865 2866 1 
1432 3125 3126 1 
1433 3121 3122 1 
1434 3113 3114 1 
1435 3615 3616 1 
1436 3363 3364 1 
1437 3865 3866 1 
1438 3877 3878 1 
1439 3879 3880 1 
1440 4363 4364 1 
1441 4115 4116 1 
1442 3869 3870 1 
1443 4119 4120 1 
1444 4621 4622 1 
1445 4627 4628 1 
1446 4373 4374 1 
1447 4865 4866 1 
1448 5125 5126 1 
1449 4637 4638 1 
1450 4863 4864 1 
1451 4623 4624 1 
1452 5113 5114 1 
1453 4873 4874 1 
1454 4877 4878 1 
1455 5119 5120 1 
1456 5861 5862 1 
1457 5877 5878 1 
1458 6119 6120 1 
1459 5377 5378 1 
1460 5883 5884 1 
1461 6123 6124 1 
1462 6111 6112 1 
1463 5881 5882 1 
1464 127 128 1 
1465 6113 6114 1 
1466 377 378 1 
1467 135 136 1 
1468 6135 6136 1 
1469 373 374 1 
1470 381 382 1 
1471 627 628 1 
1472 393 394 1 
1473 631 632 1 
1474 633 634 1 
1475 1123 1124 1 
1476 635 636 1 
1477 895 896 1 
1478 883 884 1 
1479 1125 1126 1 
1480 887 888 1 
1481 1391 1392 1 
1482 1377 1378 1 
1483 1133 1134 1 
1484 1385 1386 1 
1485 1875 1876 1 
1486 1381 1382 1 
1487 1883 1884 1 
1488 1633 1634 1 
1489 1635 1636 1 
1490 1625 1626 1 
1491 1871 1872 1 
1492 2113 2114 1 
1493 2131 2132 1 
1494 1877 1878 1 
1495 2125 2126 1 
1496 2385 2386 1 
1497 2397 2398 1 
1498 2139 2140 1 
1499 2633 2634 1 
1500 2379 2380 1 
1501 2635 2636 1 
1502 2645 2646 1 
1503 2887 2888 1 
1504 3123 3124 1 
1505 3135 3136 1 
1506 3383 3384 1 
1507 3631 3632 1 
1508 3617 3618 1 
1509 3883 3884 1 
1510 3627 3628 1 
1511 3377 3378 1 
1512 3873 3874 1 
1513 4131 4132 1 
1514 4143 4144 1 
1515 3889 3890 1 
1516 4127 4128 1 
1517 4395 4396 1 
1518 4625 4626 1 
1519 4383 4384 1 
1520 4385 4386 1 
1521 4633 4634 1 
1522 4387 4388 1 
1523 4893 4894 1 
1524 4615 4616 1 
1525 4631 4632 1 
1526 4885 4886 1 
1527 4887 4888 1 
1528 4629 4630 1 
1529 4897 4898 1 
1530 5623 5624 1 
1531 5123 5124 1 
1532 5389 5390 1 
1533 5895 5896 1 
1534 6133 6134 1 
1535 5875 5876 1 
1536 133 134 1 
1537 137 138 1 
1538 145 146 1 
1539 383 384 1 
1540 641 642 1 
1541 385 386 1 
1542 645 646 1 
1543 397 398 1 
1544 893 894 1 
1545 1395 1396 1 
1546 1643 1644 1 
1547 1407 1408 1 
1548 1153 1154 1 
1549 1397 1398 1 
1550 1645 1646 1 
1551 1657 1658 1 
1552 1897 1898 1 
1553 2145 2146 1 
1554 2655 2656 1 
1555 2391 2392 1 
1556 2405 2406 1 
1557 2641 2642 1 
1558 2891 2892 1 
1559 3145 3146 1 
1560 2897 2898 1 
1561 2905 2906 1 
1562 3149 3150 1 
1563 3641 3642 1 
1564 3885 3886 1 
1565 3645 3646 1 
1566 4145 4146 1 
1567 3891 3892 1 
1568 3897 3898 1 
1569 4141 4142 1 
1570 4651 4652 1 
1571 4139 4140 1 
1572 4393 4394 1 
1573 4643 4644 1 
1574 4895 4896 1 
1575 4899 4900 1 
1576 5147 5148 1 
1577 5653 5654 1 
1578 5647 5648 1 
1579 5395 5396 1 
1580 5645 5646 1 
1581 5631 5632 1 
1582 5643 5644 1 
1583 5907 5908 1 
1584 407 408 1 
1585 165 166 1 
1586 665 666 1 
1587 415 416 1 
1588 1161 1162 1 
1589 905 906 1 
1590 405 406 1 
1591 657 658 1 
1592 1157 1158 1 
1593 1413 1414 1 
1594 1141 1142 1 
1595 1403 1404 1 
1596 1653 1654 1 
1597 1167 1168 1 
1598 1655 1656 1 
1599 1913 1914 1 
1600 2153 2154 1 
1601 2169 2170 1 
1602 1917 1918 1 
1603 1895 1896 1 
1604 1669 1670 1 
1605 2413 2414 1 
1606 2155 2156 1 
1607 2409 2410 1 
1608 2659 2660 1 
1609 2657 2658 1 
1610 2665 2666 1 
1611 2895 2896 1 
1612 2913 2914 1 
1613 3399 3400 1 
1614 3651 3652 1 
1615 3163 3164 1 
1616 3655 3656 1 
1617 3899 3900 1 
1618 3903 3904 1 
1619 3895 3896 1 
1620 4403 4404 1 
1621 4409 4410 1 
1622 4153 4154 1 
1623 4155 4156 1 
1624 4405 4406 1 
1625 4167 4168 1 
1626 4147 4148 1 
1627 4653 4654 1 
1628 4647 4648 1 
1629 4907 4908 1 
1630 4915 4916 1 
1631 4669 4670 1 
1632 5161 5162 1 
1633 5155 5156 1 
1634 5405 5406 1 
1635 5145 5146 1 
1636 5407 5408 1 
1637 5413 5414 1 
1638 5635 5636 1 
1639 5387 5388 1 
1640 5893 5894 1 
1641 5905 5906 1 
1642 157 158 1 
1643 153 154 1 
1644 6153 6154 1 
1645 6155 6156 1 
1646 6157 6158 1 
1647 171 172 1 
1648 423 424 1 
1649 655 656 1 
1650 417 418 1 
1651 667 668 1 
1652 429 430 1 
1653 929 930 1 
1654 671 672 1 
1655 663 664 1 
1656 915 916 1 
1657 1163 1164 1 
1658 1169 1170 1 
1659 1155 1156 1 
1660 1405 1406 1 
1661 1165 1166 1 
1662 1665 1666 1 
1663 1427 1428 1 
1664 1411 1412 1 
1665 1417 1418 1 
1666 1903 1904 1 
1667 2165 2166 1 
1668 2163 2164 1 
1669 1915 1916 1 
1670 1921 1922 1 
1671 1919 1920 1 
1672 2401 2402 1 
1673 2403 2404 1 
1674 2907 2908 1 
1675 2175 2176 1 
1676 2417 2418 1 
1677 2415 2416 1 
1678 2673 2674 1 
1679 2915 2916 1 
1680 2669 2670 1 
1681 2921 2922 1 
1682 3415 3416 1 
1683 3435 3436 1 
1684 3177 3178 1 
1685 3681 3682 1 
1686 3173 3174 1 
1687 3157 3158 1 
1688 3165 3166 1 
1689 3665 3666 1 
1690 3403 3404 1 
1691 3413 3414 1 
1692 3663 3664 1 
1693 3917 3918 1 
1694 3915 3916 1 
1695 4667 4668 1 
1696 4663 4664 1 
1697 4923 4924 1 
1698 4665 4666 1 
1699 4655 4656 1 
1700 4919 4920 1 
1701 5167 5168 1 
1702 5165 5166 1 
1703 5175 5176 1 
1704 5411 5412 1 
1705 5417 5418 1 
1706 5423 5424 1 
1707 5177 5178 1 
1708 5415 5416 1 
1709 5661 5662 1 
1710 5915 5916 1 
1711 5903 5904 1 
1712 155 156 1 
1713 175 176 1 
1714 6175 6176 1 
1715 433 434 1 
1716 173 174 1 
1717 185 186 1 
1718 177 178 1 
1719 435 436 1 
1720 677 678 1 
1721 439 440 1 
1722 425 426 1 
1723 921 922 1 
1724 673 674 1 
1725 1185 1186 1 
1726 939 940 1 
1727 1173 1174 1 
1728 1175 1176 1 
1729 1177 1178 1 
1730 1663 1664 1 
1731 1673 1674 1 
1732 1933 1934 1 
1733 2185 2186 1 
1734 2437 2438 1 
1735 2433 2434 1 
1736 2671 2672 1 
1737 2667 2668 1 
1738 2423 2424 1 
1739 2435 2436 1 
1740 3185 3186 1 
1741 2923 2924 1 
1742 2685 2686 1 
1743 2687 2688 1 
1744 3175 3176 1 
1745 3437 3438 1 
1746 2929 2930 1 
1747 3425 3426 1 
1748 3433 3434 1 
1749 3439 3440 1 