ITEM: TIMESTEP
66440
ITEM: NUMBER OF ENTRIES
7874
ITEM: BOX BOUNDS pp pp ff
0.0000000000000000e+00 7.2168784000000002e+01
0.0000000000000000e+00 7.2168784000000002e+01
0.0000000000000000e+00 1.2000000000000000e+01
ITEM: ENTRIES index c_1[1] c_1[2] c_1[3]
1 244 243 1 
2 6002 244 3 
3 1006 6224 3 
4 1006 1005 1 
5 1006 6008 3 
6 6224 250 3 
7 6224 6223 1 
8 6008 6224 3 
9 6008 6007 1 
10 250 6008 3 
11 250 249 1 
12 250 1006 3 
13 310 309 1 
14 764 310 3 
15 748 747 1 
16 6052 748 3 
17 233 269 2 
18 269 270 1 
19 515 516 1 
20 515 1263 2 
21 1239 1240 1 
22 485 1239 2 
23 1737 1738 1 
24 1020 536 3 
25 1020 1019 1 
26 536 1002 3 
27 536 535 1 
28 536 1758 3 
29 1002 1020 3 
30 1002 1001 1 
31 1002 1758 3 
32 1758 1020 3 
33 1758 1757 1 
34 2012 1748 3 
35 2012 2011 1 
36 1724 1748 3 
37 1724 1723 1 
38 1724 2012 3 
39 1766 1724 3 
40 1766 1765 1 
41 1766 2012 3 
42 2741 2742 1 
43 2742 1752 3 
44 1752 1751 1 
45 2251 2489 2 
46 3986 3510 3 
47 3986 3985 1 
48 4024 4023 1 
49 3270 4024 3 
50 3511 3512 1 
51 4245 4529 2 
52 4976 4975 1 
53 4488 5238 3 
54 4488 4487 1 
55 4736 5244 3 
56 5238 6246 3 
57 5238 5237 1 
58 6246 4488 3 
59 6246 6245 1 
60 4496 4996 3 
61 4496 4495 1 
62 5500 4976 3 
63 4735 4736 1 
64 5259 5260 1 
65 5259 5737 2 
66 4999 5237 2 
67 5783 5795 2 
68 5783 5784 1 
69 6014 6018 3 
70 6014 6013 1 
71 24 474 3 
72 24 23 1 
73 24 6018 3 
74 24 6014 3 
75 6018 474 3 
76 6018 6017 1 
77 29 251 2 
78 474 6014 3 
79 474 473 1 
80 5796 5795 1 
81 240 5796 3 
82 5784 6038 3 
83 6038 6037 1 
84 6011 6021 2 
85 6016 520 3 
86 6016 6015 1 
87 525 526 1 
88 473 525 2 
89 309 513 2 
90 763 764 1 
91 526 522 3 
92 526 1022 3 
93 516 284 3 
94 522 521 1 
95 522 768 3 
96 768 1022 3 
97 502 1022 3 
98 502 516 3 
99 271 763 2 
100 535 1021 2 
101 1021 1022 1 
102 759 777 2 
103 1769 1770 1 
104 2011 2741 2 
105 1751 2769 2 
106 1503 2761 2 
107 2252 2732 3 
108 2252 2251 1 
109 2252 2762 3 
110 2511 2512 1 
111 2511 2767 2 
112 3022 3021 1 
113 3262 3788 3 
114 3262 3261 1 
115 2518 3262 3 
116 2518 2517 1 
117 2518 3788 3 
118 2262 3262 3 
119 2262 2261 1 
120 2262 2518 3 
121 3788 2262 3 
122 3788 3787 1 
123 3315 4035 2 
124 4012 3770 3 
125 3770 3769 1 
126 4809 4810 1 
127 4788 4246 3 
128 4788 4787 1 
129 4526 4788 3 
130 4526 4525 1 
131 4246 4526 3 
132 4246 4245 1 
133 4246 4274 3 
134 4274 4788 3 
135 4274 4273 1 
136 4274 4526 3 
137 4517 4809 2 
138 15 499 2 
139 239 240 1 
140 239 5539 2 
141 6012 5772 3 
142 6012 6011 1 
143 252 6012 3 
144 252 251 1 
145 252 5768 3 
146 514 788 3 
147 514 513 1 
148 521 1067 2 
149 1067 1068 1 
150 1760 1536 3 
151 1760 1759 1 
152 1278 1268 3 
153 1278 1277 1 
154 1278 1760 3 
155 1278 1536 3 
156 1536 1268 3 
157 1536 1535 1 
158 1268 1760 3 
159 1268 1267 1 
160 1267 1549 2 
161 1053 1775 2 
162 2962 3256 3 
163 3256 3255 1 
164 2272 2271 1 
165 2546 2272 3 
166 4525 4789 2 
167 4772 5024 3 
168 4772 4771 1 
169 5024 4518 3 
170 5024 5023 1 
171 4518 4772 3 
172 4518 4517 1 
173 4790 4789 1 
174 5988 5987 1 
175 17 18 1 
176 18 5788 3 
177 5788 5787 1 
178 5772 252 3 
179 5772 5771 1 
180 5768 5772 3 
181 5768 5767 1 
182 5768 6012 3 
183 6030 5540 3 
184 6030 6029 1 
185 5780 542 3 
186 5780 5779 1 
187 5780 6030 3 
188 275 276 1 
189 1330 1329 1 
190 20 1330 3 
191 289 1759 2 
192 2574 1828 3 
193 2574 2573 1 
194 1322 2574 3 
195 1322 1321 1 
196 1322 2328 3 
197 1322 1828 3 
198 1828 2328 3 
199 1828 1827 1 
200 2313 2775 2 
201 2545 2546 1 
202 1321 2545 2 
203 3045 3046 1 
204 2314 1520 3 
205 2314 2313 1 
206 2314 2818 3 
207 3041 3045 2 
208 3310 3292 3 
209 3292 3291 1 
210 4036 4035 1 
211 3746 3745 1 
212 3746 4036 3 
213 4026 3746 3 
214 4026 4036 3 
215 3312 3311 1 
216 3312 3804 3 
217 4052 4051 1 
218 4052 3312 3 
219 3996 4006 3 
220 3996 3995 1 
221 4042 3996 3 
222 4042 4041 1 
223 4006 4042 3 
224 4006 4005 1 
225 3785 3786 1 
226 3785 4043 2 
227 3804 4052 3 
228 4531 4553 2 
229 5332 5294 3 
230 5332 5331 1 
231 5536 5332 3 
232 5536 5535 1 
233 5039 5535 2 
234 4567 5331 2 
235 4567 4568 1 
236 4767 4783 2 
237 4296 5524 3 
238 4296 4295 1 
239 4512 4296 3 
240 4512 4511 1 
241 4512 5524 3 
242 5034 5988 3 
243 5033 5034 1 
244 59 6055 2 
245 6055 6056 1 
246 1552 1808 3 
247 1551 1552 1 
248 1823 2289 2 
249 1333 2307 2 
250 2304 1314 3 
251 1301 1569 2 
252 1314 1313 1 
253 1539 1791 2 
254 1302 1540 3 
255 1302 1301 1 
256 1540 1572 3 
257 1540 1539 1 
258 1571 1781 2 
259 2328 2574 3 
260 2328 2327 1 
261 3291 3299 2 
262 3803 3804 1 
263 3803 4051 2 
264 4291 4587 2 
265 4554 4553 1 
266 4802 4554 3 
267 4801 4802 1 
268 4568 4768 3 
269 4768 4767 1 
270 5544 5318 3 
271 5318 5317 1 
272 5542 5820 3 
273 5542 5541 1 
274 5781 5782 1 
275 5552 5542 3 
276 5552 5551 1 
277 5820 5552 3 
278 5820 5819 1 
279 353 5541 2 
280 75 6093 2 
281 329 330 1 
282 329 561 2 
283 590 6094 3 
284 590 589 1 
285 330 6056 3 
286 330 6094 3 
287 6094 84 3 
288 6094 6093 1 
289 60 560 3 
290 60 59 1 
291 60 6056 3 
292 84 590 3 
293 84 83 1 
294 84 6070 3 
295 66 60 3 
296 66 65 1 
297 66 328 3 
298 560 66 3 
299 560 559 1 
300 560 6070 3 
301 328 330 3 
302 328 6056 3 
303 69 589 2 
304 327 328 1 
305 827 1095 2 
306 1313 1807 2 
307 1334 2054 3 
308 1334 1333 1 
309 2332 1334 3 
310 2332 2331 1 
311 1824 1800 3 
312 1824 1823 1 
313 2292 1824 3 
314 2292 2291 1 
315 2022 1824 3 
316 2022 2021 1 
317 2022 2292 3 
318 2054 2332 3 
319 2054 2053 1 
320 1800 2292 3 
321 1800 1799 1 
322 1800 2022 3 
323 1799 2069 2 
324 3073 2843 2 
325 3086 2844 3 
326 3086 3085 1 
327 2562 3086 3 
328 2562 2561 1 
329 2562 3074 3 
330 3074 3086 3 
331 3074 3073 1 
332 2844 2562 3 
333 2844 2843 1 
334 2844 3074 3 
335 2277 2547 2 
336 2036 2035 1 
337 2035 3587 2 
338 2793 2811 2 
339 3300 2822 3 
340 3300 3299 1 
341 2593 3565 2 
342 2822 3280 3 
343 2822 2821 1 
344 3280 3300 3 
345 3280 3279 1 
346 2821 3317 2 
347 2837 3059 2 
348 3584 3583 1 
349 3322 3582 3 
350 3322 3321 1 
351 4312 3322 3 
352 4312 4311 1 
353 3582 4312 3 
354 3582 3581 1 
355 3062 3582 3 
356 3062 3061 1 
357 3062 4312 3 
358 3062 3322 3 
359 3331 3567 2 
360 4816 4310 3 
361 3568 4058 3 
362 3568 3567 1 
363 3568 4300 3 
364 4300 4058 3 
365 4300 4299 1 
366 4292 3568 3 
367 4292 4291 1 
368 4292 4300 3 
369 4310 4309 1 
370 4309 4543 2 
371 5043 5317 2 
372 5301 6087 2 
373 5567 5781 2 
374 5819 6083 2 
375 544 5564 3 
376 544 543 1 
377 5806 6054 3 
378 5806 5805 1 
379 5806 5826 3 
380 5559 6053 2 
381 354 5806 3 
382 354 353 1 
383 354 5826 3 
384 5826 6054 3 
385 5826 5825 1 
386 6054 354 3 
387 6054 6053 1 
388 562 300 3 
389 562 561 1 
390 324 76 3 
391 324 323 1 
392 324 562 3 
393 76 562 3 
394 76 75 1 
395 300 76 3 
396 300 299 1 
397 300 324 3 
398 6095 6096 1 
399 6028 6076 3 
400 6028 6096 3 
401 1076 68 3 
402 1076 1075 1 
403 610 1076 3 
404 610 609 1 
405 610 826 3 
406 68 826 3 
407 68 67 1 
408 68 610 3 
409 1078 844 3 
410 1078 1077 1 
411 1560 1078 3 
412 1560 1559 1 
413 844 1560 3 
414 844 843 1 
415 1074 828 3 
416 1074 1073 1 
417 828 1832 3 
418 828 827 1 
419 1832 1074 3 
420 1832 1831 1 
421 2291 2353 2 
422 2353 2354 1 
423 2600 1816 3 
424 1816 1815 1 
425 2354 2582 3 
426 2354 3038 3 
427 2582 2824 3 
428 2058 2306 3 
429 2058 2057 1 
430 2824 3038 3 
431 3038 3037 1 
432 1790 2058 3 
433 1790 1789 1 
434 1790 2354 3 
435 2306 1790 3 
436 2306 2305 1 
437 2046 2312 3 
438 2046 2582 3 
439 2045 2046 1 
440 2045 3043 2 
441 2809 2810 1 
442 2820 2794 3 
443 2820 2819 1 
444 2794 3554 3 
445 2794 2793 1 
446 3554 2820 3 
447 3554 3553 1 
448 3595 3596 1 
449 3595 4107 2 
450 3596 3584 3 
451 3061 4311 2 
452 3830 3324 3 
453 3830 3829 1 
454 3324 3848 3 
455 3324 3323 1 
456 3848 3830 3 
457 3848 3847 1 
458 4058 4292 3 
459 4058 4057 1 
460 4815 4816 1 
461 4572 3850 3 
462 4572 4571 1 
463 3850 3822 3 
464 3850 3849 1 
465 3850 4610 3 
466 4853 4854 1 
467 5051 5573 2 
468 5812 5786 3 
469 5812 5811 1 
470 5316 6088 3 
471 6088 6087 1 
472 5315 5316 1 
473 5838 5837 1 
474 6080 544 3 
475 6080 6079 1 
476 5822 5838 3 
477 6027 6028 1 
478 6027 6079 2 
479 81 82 1 
480 81 563 2 
481 90 116 3 
482 116 115 1 
483 595 1107 2 
484 1090 1086 3 
485 1090 1089 1 
486 1328 1090 3 
487 1328 1327 1 
488 1086 1328 3 
489 1086 1085 1 
490 1069 1327 2 
491 1077 1367 2 
492 1367 1368 1 
493 1084 842 3 
494 1084 1083 1 
495 1582 1084 3 
496 1582 1581 1 
497 1341 1342 1 
498 1341 1831 2 
499 1083 1563 2 
500 2074 1810 3 
501 2074 2073 1 
502 1812 1810 3 
503 1812 1811 1 
504 1812 2074 3 
505 1812 2090 3 
506 1810 2090 3 
507 1810 1809 1 
508 2090 2074 3 
509 2090 2089 1 
510 1098 2120 3 
511 1098 1097 1 
512 2064 2368 3 
513 2064 2120 3 
514 2120 818 3 
515 2120 2119 1 
516 818 1098 3 
517 818 817 1 
518 2823 2824 1 
519 2071 2311 2 
520 2082 2081 1 
521 2816 2082 3 
522 2845 2863 2 
523 3847 3829 2 
524 3822 4572 3 
525 3822 3821 1 
526 3822 4610 3 
527 4610 4572 3 
528 4610 4609 1 
529 4117 4118 1 
530 4117 4341 2 
531 3849 4601 2 
532 5346 4340 3 
533 5346 5345 1 
534 4604 5346 3 
535 4604 4603 1 
536 4340 4604 3 
537 4340 4339 1 
538 5348 5102 3 
539 5348 5347 1 
540 5348 5574 3 
541 5094 5348 3 
542 5094 5093 1 
543 5574 5094 3 
544 5574 5573 1 
545 5339 5589 2 
546 5340 5840 3 
547 5340 5339 1 
548 5084 5340 3 
549 5084 5083 1 
550 5084 6072 3 
551 5084 5840 3 
552 6072 5340 3 
553 6072 6071 1 
554 906 6144 3 
555 906 905 1 
556 5638 586 3 
557 5638 5637 1 
558 832 5638 3 
559 832 831 1 
560 5616 906 3 
561 5616 5615 1 
562 586 832 3 
563 586 585 1 
564 115 857 2 
565 564 563 1 
566 564 840 3 
567 82 564 3 
568 82 840 3 
569 840 839 1 
570 839 1337 2 
571 847 848 1 
572 847 2077 2 
573 2077 2078 1 
574 1586 1585 1 
575 1336 1860 3 
576 1336 1596 3 
577 1336 1342 3 
578 1368 1596 3 
579 1596 1595 1 
580 1342 1596 3 
581 1342 1860 3 
582 848 1368 3 
583 848 1586 3 
584 2319 2320 1 
585 817 2319 2 
586 1852 1394 3 
587 1567 1581 2 
588 2320 1600 3 
589 2320 2368 3 
590 1600 1599 1 
591 1600 2064 3 
592 1600 2368 3 
593 2063 2064 1 
594 2081 2089 2 
595 1097 2565 2 
596 2815 2816 1 
597 1819 2577 2 
598 2109 2607 2 
599 2864 2894 3 
600 2864 2863 1 
601 2894 2342 3 
602 2894 2893 1 
603 2342 2864 3 
604 2342 2341 1 
605 2342 2364 3 
606 2095 2096 1 
607 2095 2591 2 
608 2357 2358 1 
609 2351 2357 2 
610 3092 3606 3 
611 3092 3091 1 
612 3606 3864 3 
613 3606 3605 1 
614 3864 3092 3 
615 3864 3863 1 
616 3593 3863 2 
617 2841 3333 2 
618 4106 2842 3 
619 4106 4105 1 
620 4106 4350 3 
621 4105 4609 2 
622 4570 4842 3 
623 4570 4569 1 
624 4570 4590 3 
625 4570 4608 3 
626 4608 4590 3 
627 4608 4607 1 
628 4842 4608 3 
629 4842 4841 1 
630 2842 4350 3 
631 2842 2841 1 
632 4113 4855 2 
633 4569 4575 2 
634 4355 4603 2 
635 5801 5802 1 
636 5801 6103 2 
637 372 5116 3 
638 372 371 1 
639 4595 5093 2 
640 5607 6107 2 
641 5846 6108 3 
642 6108 6107 1 
643 852 851 1 
644 5371 6119 2 
645 5597 5598 1 
646 5597 5637 2 
647 633 634 1 
648 1585 1593 2 
649 1394 1393 1 
650 1851 1852 1 
651 1589 1849 2 
652 1849 1850 1 
653 2128 2136 3 
654 2128 2127 1 
655 1351 2127 2 
656 1617 2855 2 
657 2092 2128 3 
658 2092 2091 1 
659 2825 3339 2 
660 2096 2366 3 
661 3084 2826 3 
662 3084 3083 1 
663 2862 3084 3 
664 2862 2861 1 
665 2366 2365 1 
666 3861 3862 1 
667 3873 4363 2 
668 4363 4364 1 
669 3371 3372 1 
670 3592 3838 3 
671 3592 4386 3 
672 4590 4842 3 
673 4590 4589 1 
674 4350 3088 3 
675 4350 4349 1 
676 3088 2842 3 
677 3088 3087 1 
678 3088 4106 3 
679 4121 4607 2 
680 3870 4386 3 
681 3870 3869 1 
682 4342 4122 3 
683 4342 4822 3 
684 4342 4341 1 
685 4346 4342 3 
686 4346 4345 1 
687 4122 4822 3 
688 4122 4346 3 
689 4122 4121 1 
690 4332 4100 3 
691 4332 4331 1 
692 4856 4332 3 
693 4856 4855 1 
694 4100 4856 3 
695 4100 4099 1 
696 4324 4100 3 
697 4324 4323 1 
698 4324 4332 3 
699 4324 4856 3 
700 4622 4621 1 
701 4622 4844 3 
702 4376 4844 3 
703 4376 5354 3 
704 4376 4592 3 
705 4861 4879 2 
706 5349 5350 1 
707 5354 4592 3 
708 5354 5353 1 
709 5615 5855 2 
710 1080 852 3 
711 6119 6120 1 
712 1079 1080 1 
713 1079 1355 2 
714 342 102 3 
715 342 341 1 
716 342 878 3 
717 616 654 3 
718 616 615 1 
719 102 6086 3 
720 102 101 1 
721 102 878 3 
722 864 616 3 
723 864 863 1 
724 5598 5858 3 
725 6125 6126 1 
726 334 333 1 
727 6126 334 3 
728 1601 1602 1 
729 1132 3134 3 
730 1132 1131 1 
731 1867 1868 1 
732 3134 2372 3 
733 3134 3133 1 
734 2372 1132 3 
735 2372 2371 1 
736 1590 2376 3 
737 1590 1589 1 
738 2376 1862 3 
739 2376 2375 1 
740 1862 1590 3 
741 1862 1861 1 
742 2830 2829 1 
743 3340 2616 3 
744 3340 3339 1 
745 2856 1858 3 
746 2856 2855 1 
747 2856 3340 3 
748 1858 1857 1 
749 1858 3340 3 
750 1858 2616 3 
751 2616 2856 3 
752 2616 2615 1 
753 2377 2629 2 
754 1847 1848 1 
755 1847 2615 2 
756 2629 2630 1 
757 3099 3100 1 
758 3624 3623 1 
759 3862 3624 3 
760 3372 3910 3 
761 3884 3124 3 
762 3884 3883 1 
763 3874 3884 3 
764 3874 3873 1 
765 2336 3884 3 
766 2336 2335 1 
767 2336 3874 3 
768 3124 2336 3 
769 3124 3123 1 
770 3124 3874 3 
771 3135 3909 2 
772 3135 3136 1 
773 3625 3626 1 
774 3625 3851 2 
775 3626 4370 3 
776 3626 4870 3 
777 3626 4104 3 
778 4870 4370 3 
779 4870 4869 1 
780 4370 4104 3 
781 4370 4369 1 
782 4104 4870 3 
783 4104 4103 1 
784 4621 4627 2 
785 4362 4384 3 
786 4384 4383 1 
787 5611 5841 2 
788 6086 342 3 
789 6086 6085 1 
790 6120 5842 3 
791 113 341 2 
792 1106 1432 3 
793 1106 1105 1 
794 6142 1372 3 
795 1372 1371 1 
796 1662 1650 3 
797 1408 2138 3 
798 1408 1407 1 
799 1408 2144 3 
800 1408 2386 3 
801 2144 2386 3 
802 2144 2143 1 
803 1407 2169 2 
804 2169 2170 1 
805 2166 1892 3 
806 2166 2165 1 
807 2903 3133 2 
808 2903 2904 1 
809 2362 1642 3 
810 1642 1641 1 
811 1896 1670 3 
812 1896 1895 1 
813 1896 2622 3 
814 2622 1364 3 
815 2622 2621 1 
816 2854 2853 1 
817 3100 2854 3 
818 2878 2877 1 
819 3136 2878 3 
820 4120 5356 3 
821 4120 4119 1 
822 5356 5122 3 
823 5356 5355 1 
824 5122 4120 3 
825 5122 5121 1 
826 4851 4881 2 
827 5393 5394 1 
828 4372 5850 3 
829 4372 4371 1 
830 5850 5344 3 
831 5850 5849 1 
832 5344 4372 3 
833 5344 5343 1 
834 5625 5626 1 
835 4371 5625 2 
836 5842 5841 1 
837 390 124 3 
838 390 389 1 
839 124 6114 3 
840 124 123 1 
841 124 128 3 
842 6114 390 3 
843 6114 6113 1 
844 128 6114 3 
845 128 127 1 
846 128 390 3 
847 5343 6085 2 
848 1105 1135 2 
849 623 6147 2 
850 1136 1135 1 
851 1134 1136 3 
852 416 144 3 
853 416 415 1 
854 416 642 3 
855 144 6148 3 
856 144 143 1 
857 642 144 3 
858 642 641 1 
859 642 6148 3 
860 6148 416 3 
861 6148 6147 1 
862 622 1144 3 
863 1144 1143 1 
864 2648 2662 3 
865 2662 2661 1 
866 2390 2389 1 
867 2904 2390 3 
868 2888 2872 3 
869 2888 2887 1 
870 2402 2888 3 
871 2402 2401 1 
872 2872 2402 3 
873 2872 2871 1 
874 3161 4141 2 
875 3161 3162 1 
876 3370 3369 1 
877 3162 3370 3 
878 4924 3622 3 
879 3622 3621 1 
880 3886 2912 3 
881 2912 2911 1 
882 4923 4924 1 
883 3923 4923 2 
884 4412 4154 3 
885 4412 4411 1 
886 3889 3915 2 
887 5121 5143 2 
888 4675 4887 2 
889 5144 5143 1 
890 4877 4931 2 
891 5916 5624 3 
892 5916 5915 1 
893 5128 5916 3 
894 5128 5127 1 
895 5128 5910 3 
896 5910 5624 3 
897 5910 5909 1 
898 5910 5916 3 
899 5624 5128 3 
900 5624 5623 1 
901 5623 5895 2 
902 407 408 1 
903 407 5907 2 
904 415 421 2 
905 1151 6159 2 
906 940 2130 3 
907 940 939 1 
908 940 1176 3 
909 2130 1644 3 
910 2130 2129 1 
911 1176 2130 3 
912 1176 1175 1 
913 1176 1644 3 
914 2129 2175 2 
915 1903 1904 1 
916 1901 1903 2 
917 2418 2156 3 
918 2418 2417 1 
919 1920 2188 3 
920 1920 1919 1 
921 1920 2176 3 
922 2391 2631 2 
923 2404 1902 3 
924 2404 2403 1 
925 1936 2200 3 
926 1936 1935 1 
927 1936 2404 3 
928 2200 1902 3 
929 2200 2199 1 
930 2200 2404 3 
931 1911 1919 2 
932 2403 2411 2 
933 2652 2154 3 
934 2652 2651 1 
935 2154 2898 3 
936 2154 2153 1 
937 2898 2652 3 
938 2898 2897 1 
939 2871 2907 2 
940 3174 2656 3 
941 3174 3173 1 
942 2934 3174 3 
943 2934 2933 1 
944 2656 2934 3 
945 2656 2655 1 
946 3163 3173 2 
947 3390 4412 3 
948 3390 3389 1 
949 2911 4131 2 
950 3678 4136 3 
951 3678 3677 1 
952 3678 5132 3 
953 4136 3916 3 
954 4136 4135 1 
955 4136 5132 3 
956 3916 3678 3 
957 3916 3915 1 
958 5132 3916 3 
959 5132 5131 1 
960 4154 3390 3 
961 4154 4153 1 
962 3677 4149 2 
963 3403 4641 2 
964 4406 4932 3 
965 4932 4931 1 
966 4661 4929 2 
967 5154 5144 3 
968 5926 5642 3 
969 5926 5925 1 
970 5153 5154 1 
971 5642 404 3 
972 5642 5641 1 
973 404 5926 3 
974 404 403 1 
975 5896 5378 3 
976 5896 5895 1 
977 5898 5896 3 
978 5898 5897 1 
979 171 5649 2 
980 174 5978 3 
981 174 173 1 
982 422 1152 3 
983 422 421 1 
984 655 6213 2 
985 6213 6214 1 
986 656 422 3 
987 656 655 1 
988 656 934 3 
989 954 1208 3 
990 954 953 1 
991 954 1174 3 
992 1182 954 3 
993 1182 1181 1 
994 1174 1208 3 
995 1174 1173 1 
996 1174 1182 3 
997 2162 2161 1 
998 2156 2392 3 
999 2156 2155 1 
1000 1902 1936 3 
1001 1902 1901 1 
1002 1935 2927 2 
1003 2417 2897 2 
1004 2927 2928 1 
1005 2392 2418 3 
1006 2392 2391 1 
1007 2664 3170 3 
1008 2664 2663 1 
1009 2908 2664 3 
1010 2908 2907 1 
1011 3170 2908 3 
1012 3170 3169 1 
1013 3164 3666 3 
1014 3164 3163 1 
1015 3164 3388 3 
1016 3666 3906 3 
1017 3666 3665 1 
1018 3906 3164 3 
1019 3906 3905 1 
1020 3388 3906 3 
1021 3388 3387 1 
1022 3388 3666 3 
1023 3665 4147 2 
1024 3413 3669 2 
1025 3655 3656 1 
1026 4167 4457 2 
1027 4893 5153 2 
1028 403 5389 2 
1029 5378 5898 3 
1030 5378 5377 1 
1031 5443 5691 2 
1032 5425 5426 1 
1033 5398 420 3 
1034 5398 5397 1 
1035 5398 5650 3 
1036 5398 5658 3 
1037 164 5922 3 
1038 164 163 1 
1039 164 690 3 
1040 690 5922 3 
1041 690 689 1 
1042 690 892 3 
1043 892 164 3 
1044 892 891 1 
1045 5922 892 3 
1046 5922 5921 1 
1047 5650 5658 3 
1048 5650 5649 1 
1049 689 893 2 
1050 163 6181 2 
1051 5993 5994 1 
1052 5978 6190 3 
1053 5978 5977 1 
1054 172 914 3 
1055 172 171 1 
1056 172 430 3 
1057 172 674 3 
1058 914 674 3 
1059 914 913 1 
1060 430 914 3 
1061 430 429 1 
1062 674 430 3 
1063 674 673 1 
1064 451 452 1 
1065 451 5993 2 
1066 673 951 2 
1067 391 392 1 
1068 391 649 2 
1069 6214 440 3 
1070 440 439 1 
1071 931 932 1 
1072 1156 2162 3 
1073 1666 1454 3 
1074 2928 2186 3 
1075 2186 2185 1 
1076 1435 1436 1 
1077 1435 2447 2 
1078 2185 2193 2 
1079 2722 2422 3 
1080 2722 2721 1 
1081 2688 2722 3 
1082 2688 2687 1 
1083 2422 2688 3 
1084 2422 2421 1 
1085 2684 2902 3 
1086 2684 2683 1 
1087 2684 3392 3 
1088 2198 2684 3 
1089 2198 2197 1 
1090 3392 2198 3 
1091 3392 3391 1 
1092 2687 2707 2 
1093 2900 2899 1 
1094 2899 3673 2 
1095 3707 3708 1 
1096 4165 4673 2 
1097 4423 4961 2 
1098 4914 3938 3 
1099 4914 4913 1 
1100 4914 5160 3 
1101 3938 4414 3 
1102 3938 3937 1 
1103 3938 5160 3 
1104 5160 4414 3 
1105 5160 5159 1 
1106 4414 4914 3 
1107 4414 4413 1 
1108 5166 4390 3 
1109 5166 5165 1 
1110 5370 5166 3 
1111 5370 5369 1 
1112 5370 5416 3 
1113 4390 5370 3 
1114 4390 4389 1 
1115 4390 5416 3 
1116 5416 5166 3 
1117 5416 5415 1 
1118 5183 5453 2 
1119 5184 5183 1 
1120 5660 5956 3 
1121 5660 5659 1 
1122 5444 5660 3 
1123 5444 5443 1 
1124 5956 5444 3 
1125 5956 5955 1 
1126 5426 5184 3 
1127 670 1178 3 
1128 670 669 1 
1129 193 6195 2 
1130 6195 6196 1 
1131 669 945 2 
1132 5960 450 3 
1133 5960 5959 1 
1134 450 6198 3 
1135 450 449 1 
1136 693 1177 2 
1137 894 670 3 
1138 894 893 1 
1139 6198 5960 3 
1140 6198 6197 1 
1141 405 913 2 
1142 5994 730 3 
1143 946 448 3 
1144 946 945 1 
1145 652 946 3 
1146 652 651 1 
1147 448 652 3 
1148 448 447 1 
1149 439 665 2 
1150 452 214 3 
1151 214 213 1 
1152 672 936 3 
1153 672 671 1 
1154 672 710 3 
1155 1226 1214 3 
1156 1226 1225 1 
1157 1226 2204 3 
1158 1453 1665 2 
1159 1665 1666 1 
1160 2204 726 3 
1161 2204 2203 1 
1162 1214 2204 3 
1163 1214 1213 1 
1164 671 921 2 
1165 726 1214 3 
1166 726 725 1 
1167 726 1226 3 
1168 3402 2900 3 
1169 2435 2669 2 
1170 3976 3460 3 
1171 4220 4672 3 
1172 4672 4671 1 
1173 3719 3931 2 
1174 3888 3498 3 
1175 3888 3887 1 
1176 3690 3888 3 
1177 3690 3689 1 
1178 3429 3693 2 
1179 4424 4684 3 
1180 4424 4423 1 
1181 4216 4684 3 
1182 4216 4215 1 
1183 4216 4424 3 
1184 4162 4216 3 
1185 4162 4161 1 
1186 4162 4424 3 
1187 4684 4162 3 
1188 4684 4683 1 
1189 4683 4945 2 
1190 4913 5165 2 
1191 1178 894 3 
1192 1178 1177 1 
1193 194 193 1 
1194 196 194 3 
1195 6196 406 3 
1196 406 405 1 
1197 221 222 1 
1198 694 693 1 
1199 1180 458 3 
1200 1180 1179 1 
1201 436 1180 3 
1202 436 435 1 
1203 1225 1421 2 
1204 1217 1941 2 
1205 1942 1964 3 
1206 1942 1941 1 
1207 1942 2206 3 
1208 1964 1720 3 
1209 1964 1963 1 
1210 1964 2206 3 
1211 1720 1719 1 
1212 1720 2206 3 
1213 2458 2940 3 
1214 2458 2457 1 
1215 2956 2458 3 
1216 2956 2955 1 
1217 3980 3979 1 
1218 3474 3980 3 
1219 2703 4201 2 
1220 3459 3957 2 
1221 3928 3458 3 
1222 3928 3927 1 
1223 3460 3459 1 
1224 3498 3690 3 
1225 3498 3497 1 
1226 4163 4164 1 
1227 3939 4163 2 
1228 4956 3932 3 
1229 4956 4955 1 
1230 3694 4956 3 
1231 3694 3693 1 
1232 3694 3934 3 
1233 3694 3932 3 
1234 3934 4956 3 
1235 3934 3933 1 
1236 3932 3934 3 
1237 3932 3931 1 
1238 3689 3709 2 
1239 3947 4709 2 
1240 4698 4448 3 
1241 4698 4697 1 
1242 4210 4698 3 
1243 4210 4209 1 
1244 4448 4210 3 
1245 4448 4447 1 
1246 5963 5979 2 
1247 5724 5714 3 
1248 5696 5230 3 
1249 5696 5695 1 
1250 5696 6240 3 
1251 6240 5470 3 
1252 6240 6239 1 
1253 5470 5696 3 
1254 5470 5469 1 
1255 5230 5470 3 
1256 5230 5229 1 
1257 5230 6240 3 
1258 5964 6174 3 
1259 5964 5963 1 
1260 5938 5964 3 
1261 5938 5937 1 
1262 5938 6174 3 
1263 6174 5206 3 
1264 6174 6173 1 
1265 5714 5713 1 
1266 5206 5964 3 
1267 5206 5205 1 
1268 5206 5938 3 
1269 5229 5931 2 
1270 5181 5182 1 
1271 461 462 1 
1272 198 197 1 
1273 462 198 3 
1274 428 694 3 
1275 458 436 3 
1276 458 457 1 
1277 457 6199 2 
1278 699 1215 2 
1279 1457 1479 2 
1280 6200 472 3 
1281 6200 6199 1 
1282 1714 6200 3 
1283 1714 1713 1 
1284 216 6200 3 
1285 216 215 1 
1286 216 1714 3 
1287 472 216 3 
1288 472 471 1 
1289 472 1714 3 
1290 1480 1462 3 
1291 1480 1479 1 
1292 1422 1496 3 
1293 1422 1421 1 
1294 1422 1480 3 
1295 1422 1462 3 
1296 1462 1496 3 
1297 1462 1461 1 
1298 1496 1480 3 
1299 1496 1495 1 
1300 1710 720 3 
1301 1710 1709 1 
1302 968 1710 3 
1303 968 967 1 
1304 720 968 3 
1305 720 719 1 
1306 3424 2946 3 
1307 3424 3423 1 
1308 2704 3424 3 
1309 2704 2703 1 
1310 3226 2704 3 
1311 3226 3225 1 
1312 3226 3424 3 
1313 2946 2704 3 
1314 2946 2945 1 
1315 2946 3226 3 
1316 3940 3706 3 
1317 3940 3939 1 
1318 3724 3940 3 
1319 3724 3723 1 
1320 3482 4202 3 
1321 3482 3481 1 
1322 3462 3482 3 
1323 3462 3461 1 
1324 3462 4436 3 
1325 3706 3724 3 
1326 3706 3705 1 
1327 3473 3474 1 
1328 3473 4193 2 
1329 4202 3462 3 
1330 4202 4201 1 
1331 4202 4436 3 
1332 3933 3959 2 
1333 4710 4709 1 
1334 5202 4710 3 
1335 4209 5451 2 
1336 5441 5442 1 
1337 5678 5677 1 
1338 5718 5678 3 
1339 5693 5695 2 
1340 5463 5937 2 
1341 201 5703 2 
1342 5713 6005 2 
1343 5182 4960 3 
1344 4960 4959 1 
1345 6250 504 3 
1346 6250 6249 1 
1347 1725 1726 1 
1348 1467 1468 1 
1349 975 1467 2 
1350 1468 1726 3 
1351 1459 1709 2 
1352 2230 2462 3 
1353 1982 1460 3 
1354 1982 1981 1 
1355 1982 2462 3 
1356 1460 2216 3 
1357 1460 1459 1 
1358 1460 2462 3 
1359 1204 1684 3 
1360 1204 1203 1 
1361 2232 2460 3 
1362 2232 2231 1 
1363 2232 2700 3 
1364 2232 3472 3 
1365 2460 2700 3 
1366 2460 2459 1 
1367 2700 3472 3 
1368 2700 2699 1 
1369 3472 2460 3 
1370 3472 3471 1 
1371 2990 2966 3 
1372 2990 2989 1 
1373 2710 2990 3 
1374 2710 2709 1 
1375 2953 2954 1 
1376 2189 2953 2 
1377 2757 3461 2 
1378 3714 3713 1 
1379 4714 4982 3 
1380 4714 4713 1 
1381 3752 4978 3 
1382 3752 3751 1 
1383 5246 5248 3 
1384 5248 5247 1 
1385 5245 5246 1 
1386 5245 5961 2 
1387 230 5992 3 
1388 230 229 1 
1389 5468 230 3 
1390 5468 5467 1 
1391 5992 5468 3 
1392 5992 5991 1 
1393 202 5468 3 
1394 202 201 1 
1395 202 5992 3 
1396 202 230 3 
1397 5464 232 3 
1398 5464 5463 1 
1399 5982 508 3 
1400 5982 5981 1 
1401 508 254 3 
1402 508 507 1 
1403 508 6026 3 
1404 972 1004 3 
1405 1004 750 3 
1406 1004 1003 1 
1407 734 1004 3 
1408 734 733 1 
1409 734 972 3 
1410 750 734 3 
1411 750 749 1 
1412 476 972 3 
1413 476 750 3 
1414 260 259 1 
1415 260 476 3 
1416 988 260 3 
1417 1196 966 3 
1418 1196 1195 1 
1419 738 1196 3 
1420 738 737 1 
1421 990 738 3 
1422 990 989 1 
1423 990 1196 3 
1424 1253 1981 2 
1425 2954 3464 3 
1426 2954 2976 3 
1427 2738 2954 3 
1428 2738 3464 3 
1429 2738 3234 3 
1430 2976 3464 3 
1431 2976 3234 3 
1432 3015 3525 2 
1433 4480 4970 3 
1434 4480 4479 1 
1435 4260 4480 3 
1436 4260 4259 1 
1437 4479 4713 2 
1438 4259 4721 2 
1439 4984 4254 3 
1440 4016 4232 3 
1441 4232 4231 1 
1442 4722 4990 3 
1443 4722 4721 1 
1444 4990 5222 3 
1445 4990 4989 1 
1446 5222 4722 3 
1447 5222 5221 1 
1448 4284 5222 3 
1449 4284 4283 1 
1450 4284 4722 3 
1451 4284 4990 3 
1452 4231 4751 2 
1453 5510 3752 3 
1454 5510 5509 1 
1455 4978 5510 3 
1456 4978 4977 1 
1457 5233 5509 2 
1458 4733 4734 1 
1459 4733 5025 2 
1460 5477 5478 1 
1461 5477 5719 2 
1462 231 5973 2 
1463 13 229 2 
1464 254 5982 3 
1465 254 253 1 
1466 254 6026 3 
1467 5974 226 3 
1468 5974 5973 1 
1469 242 5974 3 
1470 242 226 3 
1471 242 241 1 
1472 6026 5982 3 
1473 6026 6025 1 
1474 236 242 3 
1475 236 5974 3 
1476 236 235 1 
1477 226 236 3 
1478 226 225 1 
1479 504 6238 3 
1480 504 503 1 
1481 264 192 3 
1482 264 263 1 
1483 264 5720 3 
1484 8 264 3 
1485 8 7 1 
1486 8 5720 3 
1487 971 972 1 
1488 463 971 2 
1489 5981 6007 2 
1490 243 475 2 
1491 475 476 1 
1492 46 5730 3 
1493 5730 5729 1 
1494 259 753 2 
1495 5 733 2 
1496 753 754 1 
1497 723 989 2 
1498 234 233 1 
1499 6 5 1 
1500 1240 6 3 
1501 983 1245 2 
1502 1245 1246 1 
1503 1517 1518 1 
1504 1271 1517 2 
1505 2490 2248 3 
1506 2490 2489 1 
1507 2490 3448 3 
1508 2248 3012 3 
1509 2248 2247 1 
1510 2248 3448 3 
1511 3448 3012 3 
1512 3448 3447 1 
1513 3012 2490 3 
1514 3012 3011 1 
1515 3005 3229 2 
1516 3010 3986 3 
1517 3010 3009 1 
1518 2995 3009 2 
1519 3512 3526 3 
1520 3526 3525 1 
1521 3812 3016 3 
1522 3812 3811 1 
1523 3773 4747 2 
1524 4724 4723 1 
1525 4758 4724 3 
1526 3771 4723 2 
1527 3772 4778 3 
1528 3772 3771 1 
1529 3772 4996 3 
1530 3772 4496 3 
1531 4778 4496 3 
1532 4778 4777 1 
1533 4996 4778 3 
1534 4996 4995 1 
1535 6228 5480 3 
1536 6228 6227 1 
1537 14 6228 3 
1538 14 13 1 
1539 14 6226 3 
1540 6226 5480 3 
1541 6226 6225 1 
1542 6226 6228 3 
1543 249 5517 2 
1544 26 256 3 
1545 26 25 1 
1546 488 26 3 
1547 488 487 1 
1548 487 6041 2 
1549 247 5753 2 
1550 256 488 3 
1551 256 255 1 
1552 1011 1483 2 
1553 3 747 2 
1554 1024 1023 1 
1555 268 1024 3 
1556 509 1243 2 
1557 297 1749 2 
1558 486 485 1 
1559 1019 1779 2 
1560 741 742 1 
1561 741 973 2 
1562 1786 1008 3 
1563 1786 1785 1 
1564 1241 1242 1 
1565 1013 1241 2 
1566 1748 1766 3 
1567 1748 1747 1 
1568 1008 1280 3 
1569 1008 1007 1 
1570 1008 1508 3 
1571 1280 1786 3 
1572 1280 1279 1 
1573 1508 1280 3 
1574 1508 1507 1 
1575 1508 1786 3 
1576 1507 2225 2 
1577 1723 2253 2 
1578 2253 2254 1 
1579 2280 2279 1 
1580 2280 2492 3 
1581 2280 2786 3 
1582 1518 2492 3 
1583 1518 2254 3 
1584 1518 2786 3 
1585 2254 2280 3 
1586 2254 2786 3 
1587 2279 2509 2 
1588 1501 1537 2 
1589 1501 1502 1 
1590 2005 2007 2 
1591 2507 2755 2 
1592 2496 2536 3 
1593 2536 2535 1 
1594 2762 1504 3 
1595 2762 2761 1 
1596 3510 3010 3 
1597 3510 3509 1 
1598 3484 2998 3 
1599 3484 3483 1 
1600 2514 3484 3 
1601 2514 2513 1 
1602 2535 3001 2 
1603 2745 2746 1 
1604 2998 2514 3 
1605 2998 2997 1 
1606 2778 3006 3 
1607 2778 2777 1 
1608 3002 2778 3 
1609 3002 3001 1 
1610 3002 3006 3 
1611 3006 2992 3 
1612 3006 3005 1 
1613 2992 2778 3 
1614 2992 2991 1 
1615 2992 3002 3 
1616 3985 4257 2 
1617 3546 3026 3 
1618 3546 3545 1 
1619 4257 4258 1 
1620 1996 1995 1 
1621 2983 2997 2 
1622 2983 2984 1 
1623 2749 3245 2 
1624 2746 1996 3 
1625 3261 3545 2 
1626 2984 4010 3 
1627 3277 3278 1 
1628 3760 3238 3 
1629 3760 3759 1 
1630 3238 3514 3 
1631 3238 3237 1 
1632 4010 4009 1 
1633 3514 3760 3 
1634 3514 3513 1 
1635 2524 3534 3 
1636 2524 2523 1 
1637 2524 3790 3 
1638 3003 3027 2 
1639 3269 3270 1 
1640 3759 3767 2 
1641 2783 3269 2 
1642 3501 3539 2 
1643 3543 3811 2 
1644 4018 3506 3 
1645 4018 4017 1 
1646 4018 4726 3 
1647 3506 4504 3 
1648 3506 3505 1 
1649 4504 4018 3 
1650 4504 4503 1 
1651 4504 4726 3 
1652 4726 3506 3 
1653 4726 4725 1 
1654 4237 4238 1 
1655 3539 3540 1 
1656 3013 4513 2 
1657 3505 3765 2 
1658 4749 4750 1 
1659 4749 5045 2 
1660 3744 4744 3 
1661 3744 3743 1 
1662 3744 4290 3 
1663 3766 3744 3 
1664 3766 3765 1 
1665 3766 4290 3 
1666 4744 3766 3 
1667 4744 4743 1 
1668 5027 5028 1 
1669 4290 4744 3 
1670 4290 4289 1 
1671 4289 4497 2 
1672 5046 5045 1 
1673 5530 4776 3 
1674 5530 5529 1 
1675 4510 5530 3 
1676 4510 4509 1 
1677 4776 4510 3 
1678 4776 4775 1 
1679 4785 4786 1 
1680 5244 5243 1 
1681 4243 4495 2 
1682 4781 5529 2 
1683 5496 5278 3 
1684 5496 5495 1 
1685 5278 5520 3 
1686 5278 5277 1 
1687 4493 4735 2 
1688 5520 5496 3 
1689 5520 5519 1 
1690 5013 5014 1 
1691 4773 5013 2 
1692 5502 5501 1 
1693 27 6033 2 
1694 266 265 1 
1695 6019 6225 2 
1696 5732 266 3 
1697 5731 5732 1 
1698 500 16 3 
1699 500 499 1 
1700 6034 500 3 
1701 6034 6033 1 
1702 16 6034 3 
1703 16 15 1 
1704 5255 5747 2 
1705 6001 6002 1 
1706 6001 6009 2 
1707 520 30 3 
1708 520 519 1 
1709 520 5516 3 
1710 5516 6016 3 
1711 5516 5515 1 
1712 30 6016 3 
1713 30 29 1 
1714 30 5516 3 
1715 5472 5748 3 
1716 5472 5471 1 
1717 6232 5472 3 
1718 6232 6231 1 
1719 5765 6013 2 
1720 5748 5734 3 
1721 5748 5747 1 
1722 5748 6232 3 
1723 5734 5472 3 
1724 5734 5733 1 
1725 5734 6232 3 
1726 489 519 2 
1727 787 1029 2 
1728 34 248 3 
1729 34 33 1 
1730 34 6022 3 
1731 12 34 3 
1732 12 11 1 
1733 12 6022 3 
1734 6022 248 3 
1735 6022 6021 1 
1736 21 22 1 
1737 21 511 2 
1738 248 12 3 
1739 248 247 1 
1740 284 283 1 
1741 284 502 3 
1742 270 522 3 
1743 270 768 3 
1744 270 526 3 
1745 6051 6052 1 
1746 1012 782 3 
1747 1012 1011 1 
1748 1012 1030 3 
1749 1012 1276 3 
1750 1276 1030 3 
1751 1276 1275 1 
1752 1030 782 3 
1753 1030 1029 1 
1754 782 1276 3 
1755 782 781 1 
1756 11 6051 2 