ITEM: TIMESTEP
105160
ITEM: NUMBER OF ENTRIES
8227
ITEM: BOX BOUNDS pp pp ff
0.0000000000000000e+00 7.2168784000000002e+01
0.0000000000000000e+00 7.2168784000000002e+01
0.0000000000000000e+00 1.2000000000000000e+01
ITEM: ENTRIES index c_1[1] c_1[2] c_1[3]
1 248 12 3 
2 248 247 1 
3 6022 248 3 
4 6022 6021 1 
5 34 248 3 
6 34 33 1 
7 34 6022 3 
8 12 34 3 
9 12 11 1 
10 12 6022 3 
11 5732 266 3 
12 266 265 1 
13 244 243 1 
14 6002 244 3 
15 1245 1246 1 
16 983 1245 2 
17 1786 1008 3 
18 1786 1785 1 
19 1744 2024 3 
20 2024 2023 1 
21 3017 3018 1 
22 2481 2482 1 
23 2481 3017 2 
24 3018 2760 3 
25 2760 2759 1 
26 2276 2018 3 
27 2276 2275 1 
28 2508 2276 3 
29 2508 2507 1 
30 2508 2754 3 
31 2018 2508 3 
32 2018 2017 1 
33 2018 2754 3 
34 2754 2276 3 
35 2754 2753 1 
36 2732 1504 3 
37 2732 2731 1 
38 2732 2762 3 
39 2252 2732 3 
40 2252 2251 1 
41 2252 2762 3 
42 2531 2731 2 
43 2762 1504 3 
44 2762 2761 1 
45 2223 3447 2 
46 3788 2262 3 
47 3788 3787 1 
48 2262 3262 3 
49 2262 2261 1 
50 2262 2518 3 
51 3261 3545 2 
52 2251 2489 2 
53 3262 3788 3 
54 3262 3261 1 
55 2490 2248 3 
56 2490 2489 1 
57 2490 3448 3 
58 3448 3012 3 
59 3448 3447 1 
60 3468 2516 3 
61 3468 3467 1 
62 4004 3468 3 
63 4004 4003 1 
64 5493 5494 1 
65 529 530 1 
66 285 1275 2 
67 1036 286 3 
68 1036 1035 1 
69 272 1036 3 
70 272 271 1 
71 272 282 3 
72 286 272 3 
73 286 285 1 
74 5765 6013 2 
75 6001 6002 1 
76 6001 6009 2 
77 1259 1269 2 
78 271 763 2 
79 763 764 1 
80 2298 2526 3 
81 2298 2297 1 
82 2298 2774 3 
83 2526 2764 3 
84 2526 2525 1 
85 1519 2275 2 
86 2759 3251 2 
87 2002 2486 3 
88 2002 2774 3 
89 2486 2485 1 
90 2486 2774 3 
91 2764 2298 3 
92 2764 2763 1 
93 2511 2512 1 
94 2511 2767 2 
95 2527 2528 1 
96 2037 2527 2 
97 2512 2530 3 
98 2512 2522 3 
99 2772 2530 3 
100 2772 2771 1 
101 2530 2532 3 
102 2530 2529 1 
103 2777 3787 2 
104 4523 5035 2 
105 4281 4787 2 
106 4047 4499 2 
107 4276 4048 3 
108 4276 4275 1 
109 4048 4500 3 
110 4048 4047 1 
111 4500 4276 3 
112 4500 4499 1 
113 5549 5550 1 
114 4244 4243 1 
115 4493 4735 2 
116 4735 4736 1 
117 512 511 1 
118 512 274 3 
119 512 5766 3 
120 5766 5765 1 
121 5766 6242 3 
122 19 39 2 
123 19 20 1 
124 22 512 3 
125 22 274 3 
126 22 6242 3 
127 274 273 1 
128 274 6010 3 
129 6010 6009 1 
130 6010 5766 3 
131 6242 6010 3 
132 792 554 3 
133 792 791 1 
134 792 1068 3 
135 546 792 3 
136 546 545 1 
137 546 1068 3 
138 554 546 3 
139 554 553 1 
140 554 1068 3 
141 1038 772 3 
142 1038 1037 1 
143 1032 1038 3 
144 1032 1031 1 
145 761 1037 2 
146 1278 1268 3 
147 1278 1277 1 
148 1278 1760 3 
149 1278 1536 3 
150 1536 1268 3 
151 1536 1535 1 
152 1760 1536 3 
153 1760 1759 1 
154 1268 1760 3 
155 1268 1267 1 
156 1281 1541 2 
157 1773 2297 2 
158 1520 2296 3 
159 1520 1519 1 
160 1520 2818 3 
161 2296 2314 3 
162 2296 2295 1 
163 2818 2296 3 
164 2818 2817 1 
165 2314 1520 3 
166 2314 2313 1 
167 2314 2818 3 
168 2001 2002 1 
169 2001 2485 2 
170 2313 2775 2 
171 3252 2282 3 
172 3252 3251 1 
173 1784 3252 3 
174 1784 1783 1 
175 2282 1784 3 
176 2282 2281 1 
177 2281 2529 2 
178 4264 5036 3 
179 4264 4263 1 
180 4264 4534 3 
181 4534 5036 3 
182 4534 4533 1 
183 4282 4264 3 
184 4282 4281 1 
185 4282 4534 3 
186 3992 3502 3 
187 3502 3501 1 
188 5036 4282 3 
189 5036 5035 1 
190 4019 4020 1 
191 4020 4244 3 
192 5039 5535 2 
193 5284 5296 3 
194 5284 5283 1 
195 5284 5760 3 
196 4804 5284 3 
197 4804 4803 1 
198 4765 5537 2 
199 5034 6050 3 
200 5034 5033 1 
201 6050 5988 3 
202 6050 6049 1 
203 798 314 3 
204 798 797 1 
205 550 549 1 
206 20 1330 3 
207 1539 1791 2 
208 1290 1792 3 
209 1290 1289 1 
210 1290 1542 3 
211 2308 1290 3 
212 2308 2307 1 
213 1792 2308 3 
214 1792 1791 1 
215 1542 1792 3 
216 1542 1541 1 
217 1542 2308 3 
218 1795 2053 2 
219 1796 2564 3 
220 1796 1795 1 
221 1796 2776 3 
222 1796 2044 3 
223 2564 2776 3 
224 2564 2563 1 
225 1783 3035 2 
226 1515 1516 1 
227 1515 2801 2 
228 2802 2801 1 
229 1516 2802 3 
230 3031 3309 2 
231 4801 4802 1 
232 4554 4553 1 
233 4802 4554 3 
234 5332 5294 3 
235 5332 5331 1 
236 5536 5332 3 
237 5536 5535 1 
238 5294 5536 3 
239 5294 5293 1 
240 4014 5536 3 
241 4014 4013 1 
242 4014 5332 3 
243 4014 5294 3 
244 5538 6048 3 
245 5538 5537 1 
246 5262 5538 3 
247 5262 5261 1 
248 6048 5262 3 
249 6048 6047 1 
250 5551 6049 2 
251 5033 5799 2 
252 5821 5822 1 
253 538 6044 3 
254 538 537 1 
255 322 538 3 
256 322 321 1 
257 322 784 3 
258 784 538 3 
259 784 783 1 
260 784 6044 3 
261 6044 322 3 
262 6044 6043 1 
263 70 798 3 
264 70 69 1 
265 70 72 3 
266 314 70 3 
267 314 313 1 
268 72 314 3 
269 72 71 1 
270 72 798 3 
271 41 321 2 
272 313 559 2 
273 537 5779 2 
274 528 804 3 
275 528 527 1 
276 528 558 3 
277 804 548 3 
278 804 803 1 
279 558 548 3 
280 558 557 1 
281 558 804 3 
282 548 528 3 
283 548 547 1 
284 1274 1018 3 
285 1274 1273 1 
286 1301 1569 2 
287 1302 1540 3 
288 1302 1301 1 
289 1540 1572 3 
290 1540 1539 1 
291 1064 1572 3 
292 1064 1063 1 
293 1064 1540 3 
294 1064 1302 3 
295 1572 1302 3 
296 1572 1571 1 
297 2315 2316 1 
298 1333 2307 2 
299 1570 1554 3 
300 1570 1569 1 
301 1570 2542 3 
302 1571 1781 2 
303 2332 1334 3 
304 2332 2331 1 
305 2054 2332 3 
306 2054 2053 1 
307 1334 2054 3 
308 1334 1333 1 
309 1289 2283 2 
310 2813 3085 2 
311 3840 3602 3 
312 3840 3839 1 
313 3602 3832 3 
314 3602 3601 1 
315 3832 3840 3 
316 3832 3831 1 
317 3291 3299 2 
318 3067 3321 2 
319 3792 3292 3 
320 3792 3791 1 
321 3292 3310 3 
322 3292 3291 1 
323 3310 3792 3 
324 3310 3309 1 
325 3859 4075 2 
326 3859 3860 1 
327 4086 3332 3 
328 4086 4085 1 
329 4086 4588 3 
330 4588 3776 3 
331 4588 4587 1 
332 3332 4588 3 
333 3332 3331 1 
334 4567 5331 2 
335 4567 4568 1 
336 5043 5317 2 
337 5805 6043 2 
338 5838 5837 1 
339 5822 5838 3 
340 5552 5542 3 
341 5552 5551 1 
342 5820 5552 3 
343 5820 5819 1 
344 5542 5820 3 
345 5542 5541 1 
346 300 76 3 
347 300 299 1 
348 300 324 3 
349 562 300 3 
350 562 561 1 
351 76 562 3 
352 76 75 1 
353 324 76 3 
354 324 323 1 
355 324 562 3 
356 593 5837 2 
357 75 6093 2 
358 1332 1066 3 
359 1332 1331 1 
360 836 1332 3 
361 836 835 1 
362 1066 836 3 
363 1066 1065 1 
364 94 1332 3 
365 94 93 1 
366 94 1066 3 
367 94 836 3 
368 2316 1096 3 
369 1096 1095 1 
370 1824 1800 3 
371 1824 1823 1 
372 2292 1824 3 
373 2292 2291 1 
374 1800 2292 3 
375 1800 1799 1 
376 1800 2022 3 
377 2022 1824 3 
378 2022 2021 1 
379 2022 2292 3 
380 2291 2353 2 
381 1799 2069 2 
382 2353 2354 1 
383 3086 2844 3 
384 3086 3085 1 
385 2562 3086 3 
386 2562 2561 1 
387 2562 3074 3 
388 2844 2562 3 
389 2844 2843 1 
390 2844 3074 3 
391 3074 3086 3 
392 3074 3073 1 
393 3563 3831 2 
394 2822 3280 3 
395 2822 2821 1 
396 2821 3317 2 
397 3607 3813 2 
398 3063 3569 2 
399 3776 3332 3 
400 3776 3775 1 
401 3776 4086 3 
402 4076 3064 3 
403 4076 4075 1 
404 2788 4076 3 
405 2788 2787 1 
406 3331 3567 2 
407 3064 2788 3 
408 3064 3063 1 
409 4291 4587 2 
410 2787 3589 2 
411 4300 4058 3 
412 4300 4299 1 
413 4058 4292 3 
414 4058 4057 1 
415 4292 3568 3 
416 4292 4291 1 
417 4292 4300 3 
418 3568 4058 3 
419 3568 3567 1 
420 3568 4300 3 
421 5830 5044 3 
422 5830 5829 1 
423 5302 5814 3 
424 5302 5301 1 
425 5302 5830 3 
426 5814 5044 3 
427 5814 5813 1 
428 5814 5830 3 
429 5044 5302 3 
430 5044 5043 1 
431 5318 5317 1 
432 5544 5318 3 
433 5819 6083 2 
434 5301 6087 2 
435 5543 5544 1 
436 5299 5543 2 
437 783 5777 2 
438 5568 5560 3 
439 5568 5567 1 
440 5560 5808 3 
441 5560 5559 1 
442 5560 5794 3 
443 5794 5568 3 
444 5794 5793 1 
445 5794 5808 3 
446 5816 74 3 
447 5816 5815 1 
448 5808 5568 3 
449 5808 5807 1 
450 356 308 3 
451 96 1324 3 
452 355 356 1 
453 337 355 2 
454 1324 1323 1 
455 1560 1078 3 
456 1560 1559 1 
457 844 1560 3 
458 844 843 1 
459 1790 2058 3 
460 1790 1789 1 
461 1790 2354 3 
462 2058 2306 3 
463 2058 2057 1 
464 2058 3352 3 
465 2354 2582 3 
466 2354 3038 3 
467 3038 3037 1 
468 2046 2312 3 
469 2046 2582 3 
470 2070 2069 1 
471 2070 3352 3 
472 2306 1790 3 
473 2306 2305 1 
474 2306 3352 3 
475 2824 3038 3 
476 2582 2824 3 
477 2337 2338 1 
478 2337 2827 2 
479 1826 2070 3 
480 2071 2311 2 
481 2580 2579 1 
482 1846 2580 3 
483 2097 3313 2 
484 3308 3307 1 
485 3050 3308 3 
486 3056 2330 3 
487 3056 3055 1 
488 3794 3318 3 
489 3794 3793 1 
490 3323 3775 2 
491 3318 3066 3 
492 3318 3317 1 
493 3318 3344 3 
494 3066 3794 3 
495 3066 3065 1 
496 3066 3344 3 
497 3344 3794 3 
498 3344 3343 1 
499 4108 4110 3 
500 4108 4107 1 
501 4110 3620 3 
502 4110 4109 1 
503 3350 4110 3 
504 3350 3349 1 
505 3350 3620 3 
506 3350 4108 3 
507 3620 4108 3 
508 3620 3619 1 
509 3343 3353 2 
510 3324 3848 3 
511 3324 3323 1 
512 3583 3599 2 
513 3830 3324 3 
514 3830 3829 1 
515 3822 4572 3 
516 3822 3821 1 
517 3822 4610 3 
518 3850 3822 3 
519 3850 3849 1 
520 3850 4610 3 
521 4610 4572 3 
522 4610 4609 1 
523 4572 3850 3 
524 4572 4571 1 
525 3575 3815 2 
526 4321 4351 2 
527 4309 4543 2 
528 3836 4544 3 
529 3836 3835 1 
530 4798 3836 3 
531 4798 4797 1 
532 4544 4798 3 
533 4544 4543 1 
534 6088 6087 1 
535 6084 5816 3 
536 6084 6083 1 
537 5610 74 3 
538 5610 5609 1 
539 5610 5816 3 
540 5610 6084 3 
541 74 6084 3 
542 74 73 1 
543 6106 98 3 
544 6106 6105 1 
545 1148 1147 1 
546 81 82 1 
547 81 563 2 
548 82 564 3 
549 82 840 3 
550 564 563 1 
551 564 840 3 
552 840 839 1 
553 582 338 3 
554 582 581 1 
555 338 572 3 
556 338 337 1 
557 1638 860 3 
558 572 306 3 
559 572 571 1 
560 572 582 3 
561 839 1337 2 
562 1564 1310 3 
563 1564 1563 1 
564 1637 1638 1 
565 1101 1637 2 
566 1070 1564 3 
567 1070 1069 1 
568 2319 2320 1 
569 817 2319 2 
570 847 848 1 
571 847 2077 2 
572 841 843 2 
573 2064 2368 3 
574 2064 2120 3 
575 1600 1599 1 
576 1600 2064 3 
577 1600 2368 3 
578 2320 1600 3 
579 2320 2368 3 
580 818 1098 3 
581 818 817 1 
582 2120 818 3 
583 2120 2119 1 
584 2110 2340 3 
585 2110 2109 1 
586 2110 2610 3 
587 2110 2360 3 
588 2828 3604 3 
589 2828 2827 1 
590 2610 2340 3 
591 2610 2609 1 
592 3037 3095 2 
593 3044 2828 3 
594 3044 3043 1 
595 3604 3044 3 
596 3604 3603 1 
597 2072 2071 1 
598 2555 2579 2 
599 3848 3830 3 
600 3848 3847 1 
601 3847 3829 2 
602 3354 3338 3 
603 3354 3353 1 
604 3338 2834 3 
605 3338 3337 1 
606 2834 3354 3 
607 2834 2833 1 
608 3596 3584 3 
609 3584 3583 1 
610 3849 4601 2 
611 3833 4571 2 
612 3833 3834 1 
613 4601 4602 1 
614 4355 4603 2 
615 3834 4114 3 
616 6104 4562 3 
617 6104 6103 1 
618 4297 5109 2 
619 115 857 2 
620 5619 5847 2 
621 653 1147 2 
622 1834 1108 3 
623 1834 1833 1 
624 1338 1114 3 
625 1338 1337 1 
626 1595 2099 2 
627 1114 812 3 
628 1114 1113 1 
629 1114 1634 3 
630 2099 2100 1 
631 1081 1082 1 
632 1081 1833 2 
633 1098 2120 3 
634 1098 1097 1 
635 1810 2090 3 
636 1810 1809 1 
637 2074 1810 3 
638 2074 2073 1 
639 2090 2074 3 
640 2090 2089 1 
641 1812 1810 3 
642 1812 1811 1 
643 1812 2074 3 
644 1812 2090 3 
645 1097 2565 2 
646 2601 2609 2 
647 2109 2607 2 
648 2862 3084 3 
649 2862 2861 1 
650 2826 2862 3 
651 2826 2825 1 
652 3084 2826 3 
653 3084 3083 1 
654 2095 2096 1 
655 2095 2591 2 
656 2096 2366 3 
657 2366 2365 1 
658 2363 2861 2 
659 2352 3616 3 
660 2352 2351 1 
661 2846 2352 3 
662 2846 2845 1 
663 3616 2846 3 
664 3616 3615 1 
665 2364 2864 3 
666 2364 2363 1 
667 2364 2894 3 
668 2864 2894 3 
669 2864 2863 1 
670 2342 2864 3 
671 2342 2341 1 
672 2342 2364 3 
673 3092 3606 3 
674 3092 3091 1 
675 3606 3864 3 
676 3606 3605 1 
677 3864 3092 3 
678 3864 3863 1 
679 4822 4346 3 
680 4822 4821 1 
681 4346 4342 3 
682 4346 4345 1 
683 4122 4822 3 
684 4122 4346 3 
685 4122 4121 1 
686 4342 4122 3 
687 4342 4822 3 
688 4342 4341 1 
689 3861 3862 1 
690 3861 4345 2 
691 4087 4093 2 
692 4114 4113 1 
693 4332 4100 3 
694 4332 4331 1 
695 4100 4856 3 
696 4100 4099 1 
697 4324 4100 3 
698 4324 4323 1 
699 4324 4332 3 
700 4324 4856 3 
701 4856 4332 3 
702 4856 4855 1 
703 4340 4604 3 
704 4340 4339 1 
705 4088 4820 3 
706 4088 4087 1 
707 4088 5802 3 
708 4604 5346 3 
709 4604 4603 1 
710 5346 4340 3 
711 5346 5345 1 
712 5091 5605 2 
713 5092 5376 3 
714 5092 5091 1 
715 5092 5106 3 
716 5106 4580 3 
717 5106 5105 1 
718 5106 5376 3 
719 44 110 3 
720 44 43 1 
721 116 115 1 
722 90 116 3 
723 2073 2879 2 
724 2879 2880 1 
725 2566 2565 1 
726 2880 870 3 
727 870 869 1 
728 1850 2566 3 
729 1606 1630 3 
730 1606 1605 1 
731 2602 1606 3 
732 2602 2601 1 
733 1811 2623 2 
734 1836 1606 3 
735 1836 1835 1 
736 1836 2602 3 
737 1630 1836 3 
738 1630 1629 1 
739 1630 2602 3 
740 1849 1850 1 
741 1589 1849 2 
742 1617 2855 2 
743 2624 2344 3 
744 2624 2623 1 
745 2344 2850 3 
746 2344 2343 1 
747 2344 2608 3 
748 2608 2624 3 
749 2608 2607 1 
750 2608 2850 3 
751 2850 2624 3 
752 2850 2849 1 
753 3100 2854 3 
754 2854 2853 1 
755 2825 3339 2 
756 2611 3083 2 
757 2611 2612 1 
758 2619 2853 2 
759 2351 2357 2 
760 2357 2358 1 
761 2829 3103 2 
762 2894 2342 3 
763 2894 2893 1 
764 2365 2595 2 
765 2595 2596 1 
766 2874 2618 3 
767 2874 2873 1 
768 3180 3179 1 
769 4121 4607 2 
770 3869 4385 2 
771 3624 3623 1 
772 3862 3624 3 
773 4369 4869 2 
774 4370 4104 3 
775 4370 4369 1 
776 5079 5345 2 
777 4323 5349 2 
778 5349 5350 1 
779 5872 372 3 
780 5872 5871 1 
781 5135 5347 2 
782 852 851 1 
783 877 5875 2 
784 5890 900 3 
785 5890 5889 1 
786 612 5890 3 
787 612 611 1 
788 900 612 3 
789 900 899 1 
790 1432 1356 3 
791 1432 1431 1 
792 1356 1106 3 
793 1356 1355 1 
794 615 1431 2 
795 1605 1869 2 
796 1590 2376 3 
797 1590 1589 1 
798 2376 1862 3 
799 2376 2375 1 
800 1862 1590 3 
801 1862 1861 1 
802 2343 2369 2 
803 2616 2856 3 
804 2616 2615 1 
805 1858 1857 1 
806 1858 3340 3 
807 1858 2616 3 
808 3340 2616 3 
809 3340 3339 1 
810 2856 1858 3 
811 2856 2855 1 
812 2856 3340 3 
813 3104 2634 3 
814 3104 3103 1 
815 2604 2384 3 
816 2604 2603 1 
817 2604 3104 3 
818 2384 2634 3 
819 2384 2383 1 
820 2384 3104 3 
821 2634 2604 3 
822 2634 2633 1 
823 3132 2356 3 
824 3132 3131 1 
825 1847 2615 2 
826 2873 3643 2 
827 1848 1847 1 
828 2358 2870 3 
829 2596 1848 3 
830 2870 2869 1 
831 3644 3844 3 
832 3644 3643 1 
833 3380 3644 3 
834 3380 3379 1 
835 3844 3380 3 
836 3844 3843 1 
837 3868 3140 3 
838 3868 3867 1 
839 3868 3896 3 
840 3140 3398 3 
841 3140 3139 1 
842 3398 3896 3 
843 3398 3397 1 
844 3398 3868 3 
845 2877 3897 2 
846 3143 3641 2 
847 3625 3626 1 
848 3625 3851 2 
849 4870 4370 3 
850 4870 4869 1 
851 3626 4370 3 
852 3626 4870 3 
853 3626 4104 3 
854 4104 4870 3 
855 4104 4103 1 
856 4103 4115 2 
857 5356 5122 3 
858 5356 5355 1 
859 4120 5356 3 
860 4120 4119 1 
861 5122 4120 3 
862 5122 5121 1 
863 4621 4627 2 
864 4593 4594 1 
865 4593 5115 2 
866 4640 4628 3 
867 4640 4639 1 
868 4628 4646 3 
869 4628 4627 1 
870 4646 4640 3 
871 4646 4645 1 
872 4598 4646 3 
873 4598 4597 1 
874 4598 4628 3 
875 4598 4640 3 
876 5878 4156 3 
877 5878 5877 1 
878 4156 5362 3 
879 4156 4155 1 
880 5362 5878 3 
881 5362 5361 1 
882 1106 1432 3 
883 1106 1105 1 
884 389 899 2 
885 2125 2126 1 
886 2125 2151 2 
887 414 1376 3 
888 1376 1375 1 
889 1874 1900 3 
890 1874 1873 1 
891 1900 1918 3 
892 1900 1899 1 
893 1358 1874 3 
894 1358 1357 1 
895 1358 1918 3 
896 1358 1900 3 
897 1918 1874 3 
898 1918 1917 1 
899 1137 1138 1 
900 1137 1375 2 
901 634 1614 3 
902 1614 1613 1 
903 1870 1852 3 
904 1870 1869 1 
905 1852 1394 3 
906 1852 1851 1 
907 1394 1870 3 
908 1394 1393 1 
909 2132 2131 1 
910 2614 2132 3 
911 1889 2389 2 
912 2390 2389 1 
913 2891 3131 2 
914 2904 2390 3 
915 3379 3895 2 
916 3896 3140 3 
917 3896 3895 1 
918 2886 2885 1 
919 2868 2886 3 
920 3371 3372 1 
921 3636 3146 3 
922 3636 3635 1 
923 2867 3635 2 
924 2867 2868 1 
925 3136 2878 3 
926 2878 2877 1 
927 3642 3902 3 
928 3642 3641 1 
929 3618 3642 3 
930 3618 3617 1 
931 3618 3924 3 
932 3902 3618 3 
933 3902 3901 1 
934 3902 3924 3 
935 3924 3642 3 
936 3924 3923 1 
937 4127 4129 2 
938 4397 5355 2 
939 5121 5143 2 
940 5410 4406 3 
941 5410 5409 1 
942 4932 5410 3 
943 4932 4931 1 
944 4638 4882 3 
945 4638 4637 1 
946 4638 4864 3 
947 929 5877 2 
948 6154 6124 3 
949 6154 6153 1 
950 160 6154 3 
951 160 159 1 
952 6124 160 3 
953 6124 6123 1 
954 642 144 3 
955 642 641 1 
956 642 6148 3 
957 6148 416 3 
958 6148 6147 1 
959 1682 1162 3 
960 1682 1681 1 
961 1682 1898 3 
962 1624 1162 3 
963 1624 1623 1 
964 1624 1682 3 
965 1162 1898 3 
966 1162 1161 1 
967 1898 1624 3 
968 1898 1897 1 
969 2174 2152 3 
970 2174 2173 1 
971 2152 2374 3 
972 2152 2151 1 
973 2374 2174 3 
974 2374 2373 1 
975 1882 2174 3 
976 1882 1881 1 
977 1882 2374 3 
978 1882 2152 3 
979 1907 2373 2 
980 1385 1881 2 
981 2129 2175 2 
982 2613 2614 1 
983 2651 2675 2 
984 2676 2658 3 
985 2676 2675 1 
986 2658 3418 3 
987 2658 2657 1 
988 2658 3668 3 
989 3418 2676 3 
990 3418 3417 1 
991 3418 3668 3 
992 3668 2676 3 
993 3668 3667 1 
994 3399 3667 2 
995 3910 3909 1 
996 3372 3910 3 
997 3146 3130 3 
998 3146 3145 1 
999 3130 3636 3 
1000 3130 3129 1 
1001 3135 3909 2 
1002 3135 3136 1 
1003 3404 3670 3 
1004 3404 3403 1 
1005 3404 3908 3 
1006 3923 4923 2 
1007 4923 4924 1 
1008 4658 4160 3 
1009 4160 4159 1 
1010 5409 5427 2 
1011 4919 5423 2 
1012 403 5389 2 
1013 121 123 2 
1014 668 182 3 
1015 668 667 1 
1016 914 674 3 
1017 914 913 1 
1018 386 668 3 
1019 386 385 1 
1020 136 668 3 
1021 136 135 1 
1022 136 386 3 
1023 151 641 2 
1024 1142 152 3 
1025 152 151 1 
1026 416 144 3 
1027 416 415 1 
1028 416 642 3 
1029 409 6187 2 
1030 2148 1908 3 
1031 1151 6159 2 
1032 1908 1907 1 
1033 1644 940 3 
1034 1644 1643 1 
1035 1176 2130 3 
1036 1176 1175 1 
1037 1176 1644 3 
1038 940 2130 3 
1039 940 939 1 
1040 940 1176 3 
1041 2130 1644 3 
1042 2130 2129 1 
1043 1853 2155 2 
1044 2402 2888 3 
1045 2402 2401 1 
1046 2872 2402 3 
1047 2872 2871 1 
1048 2888 2872 3 
1049 2888 2887 1 
1050 1938 2662 3 
1051 1938 1937 1 
1052 2648 1938 3 
1053 2648 2647 1 
1054 3400 2680 3 
1055 3400 3399 1 
1056 2158 3400 3 
1057 2158 2157 1 
1058 2158 3408 3 
1059 2680 2158 3 
1060 2680 2679 1 
1061 2680 3408 3 
1062 3680 2934 3 
1063 3680 3679 1 
1064 2656 2934 3 
1065 2656 2655 1 
1066 2656 3680 3 
1067 2934 3174 3 
1068 2934 2933 1 
1069 3408 3400 3 
1070 3408 3407 1 
1071 3174 2656 3 
1072 3174 3173 1 
1073 3174 3680 3 
1074 3163 3173 2 
1075 3914 3404 3 
1076 3914 3913 1 
1077 3425 3935 2 
1078 3913 4427 2 
1079 4675 4887 2 
1080 5153 5154 1 
1081 5434 5194 3 
1082 5194 5193 1 
1083 4400 4888 3 
1084 4400 4399 1 
1085 4888 4878 3 
1086 4888 4887 1 
1087 4878 4400 3 
1088 4878 4877 1 
1089 4138 4137 1 
1090 4663 5405 2 
1091 5692 5390 3 
1092 5692 5691 1 
1093 6168 122 3 
1094 6168 6167 1 
1095 111 5391 2 
1096 5657 6165 2 
1097 5392 6168 3 
1098 5392 5391 1 
1099 122 5392 3 
1100 122 121 1 
1101 405 913 2 
1102 425 447 2 
1103 701 1173 2 
1104 1152 656 3 
1105 1152 1151 1 
1106 934 422 3 
1107 934 933 1 
1108 934 1152 3 
1109 422 1152 3 
1110 422 421 1 
1111 656 422 3 
1112 656 655 1 
1113 656 934 3 
1114 1948 2666 3 
1115 2666 2665 1 
1116 2185 2193 2 
1117 2871 2907 2 
1118 2673 3165 2 
1119 3164 3666 3 
1120 3164 3163 1 
1121 3164 3388 3 
1122 3906 3164 3 
1123 3906 3905 1 
1124 3666 3906 3 
1125 3666 3665 1 
1126 3388 3906 3 
1127 3388 3387 1 
1128 3388 3666 3 
1129 3193 4171 2 
1130 4428 4674 3 
1131 4428 4427 1 
1132 4428 4430 3 
1133 4430 4168 3 
1134 4430 4429 1 
1135 4430 4674 3 
1136 4674 4168 3 
1137 4674 4673 1 
1138 4168 4428 3 
1139 4168 4167 1 
1140 4399 5617 2 
1141 5664 4138 3 
1142 5433 5434 1 
1143 5369 5433 2 
1144 6167 6189 2 
1145 5444 5660 3 
1146 5444 5443 1 
1147 6196 406 3 
1148 406 405 1 
1149 702 952 3 
1150 702 701 1 
1151 692 702 3 
1152 692 691 1 
1153 692 952 3 
1154 460 702 3 
1155 460 459 1 
1156 460 692 3 
1157 952 460 3 
1158 952 951 1 
1159 459 935 2 
1160 2431 2437 2 
1161 1435 1436 1 
1162 1435 2447 2 
1163 2191 3185 2 
1164 3186 2670 3 
1165 3186 3185 1 
1166 2192 3186 3 
1167 2192 2191 1 
1168 2192 2674 3 
1169 2674 3186 3 
1170 2674 2673 1 
1171 2670 2192 3 
1172 2670 2669 1 
1173 2670 2674 3 
1174 3675 3687 2 
1175 4165 4673 2 
1176 4429 4695 2 
1177 4167 4457 2 
1178 4655 4917 2 
1179 3937 4185 2 
1180 5370 5166 3 
1181 5370 5369 1 
1182 5370 5416 3 
1183 5166 4390 3 
1184 5166 5165 1 
1185 5416 5166 3 
1186 5416 5415 1 
1187 5429 5669 2 
1188 4390 5370 3 
1189 4390 4389 1 
1190 4390 5416 3 
1191 5918 5917 1 
1192 6184 5918 3 
1193 689 893 2 
1194 1178 894 3 
1195 1178 1177 1 
1196 427 428 1 
1197 1190 5944 3 
1198 1189 1190 1 
1199 679 6175 2 
1200 936 682 3 
1201 936 935 1 
1202 710 936 3 
1203 710 709 1 
1204 672 936 3 
1205 672 671 1 
1206 672 710 3 
1207 682 672 3 
1208 682 681 1 
1209 682 710 3 
1210 671 921 2 
1211 1940 1939 1 
1212 2426 1940 3 
1213 2205 2206 1 
1214 1939 2205 2 
1215 1454 1453 1 
1216 1666 1454 3 
1217 2432 1706 3 
1218 2432 2431 1 
1219 1706 1688 3 
1220 1706 1705 1 
1221 1688 2432 3 
1222 1688 1687 1 
1223 3402 2900 3 
1224 2900 2899 1 
1225 2926 2442 3 
1226 2926 1950 3 
1227 2926 2925 1 
1228 2899 3673 2 
1229 4672 4671 1 
1230 3929 4667 2 
1231 3930 4166 3 
1232 3930 3929 1 
1233 4166 3430 3 
1234 4166 4165 1 
1235 4219 4693 2 
1236 4219 4220 1 
1237 3430 3930 3 
1238 3430 3429 1 
1239 4710 4709 1 
1240 4447 5217 2 
1241 5196 5462 3 
1242 5195 5196 1 
1243 5195 5219 2 
1244 5220 4460 3 
1245 5220 5219 1 
1246 5224 5458 3 
1247 5224 5223 1 
1248 4470 5224 3 
1249 4470 4469 1 
1250 5458 4470 3 
1251 5458 5457 1 
1252 4460 5218 3 
1253 4460 4459 1 
1254 6217 6218 1 
1255 5415 5673 2 
1256 428 694 3 
1257 694 693 1 
1258 693 1177 2 
1259 5484 5483 1 
1260 730 729 1 
1261 5994 730 3 
1262 195 196 1 
1263 195 1383 2 
1264 6192 432 3 
1265 6192 6191 1 
1266 432 454 3 
1267 432 431 1 
1268 178 177 1 
1269 222 178 3 
1270 5993 5994 1 
1271 221 222 1 
1272 221 431 2 
1273 177 1189 2 
1274 680 666 3 
1275 680 679 1 
1276 680 1186 3 
1277 666 434 3 
1278 666 665 1 
1279 1186 666 3 
1280 1186 1185 1 
1281 709 1461 2 
1282 1496 1480 3 
1283 1496 1495 1 
1284 1422 1496 3 
1285 1422 1421 1 
1286 1422 1480 3 
1287 1422 1462 3 
1288 1225 1421 2 
1289 1954 1702 3 
1290 1954 1953 1 
1291 1954 1960 3 
1292 1702 1200 3 
1293 1702 1701 1 
1294 1217 1941 2 
1295 1960 1702 3 
1296 1960 1959 1 
1297 1200 1960 3 
1298 1200 1199 1 
1299 1200 1954 3 
1300 726 1214 3 
1301 726 725 1 
1302 726 1226 3 
1303 1214 2204 3 
1304 1214 1213 1 
1305 1199 1683 2 
1306 1226 1214 3 
1307 1226 1225 1 
1308 1226 2204 3 
1309 2204 726 3 
1310 2204 2203 1 
1311 1720 1719 1 
1312 1720 2206 3 
1313 1942 1964 3 
1314 1942 1941 1 
1315 1942 2206 3 
1316 1964 1720 3 
1317 1964 1963 1 
1318 1964 2206 3 
1319 1689 1959 2 
1320 1687 1949 2 
1321 1950 2440 3 
1322 1950 1949 1 
1323 3674 3673 1 
1324 3172 3674 3 
1325 3958 3946 3 
1326 3958 3957 1 
1327 2948 3958 3 
1328 2948 2947 1 
1329 2948 3450 3 
1330 2948 3946 3 
1331 3171 3172 1 
1332 3171 3189 2 
1333 3946 3450 3 
1334 3946 3945 1 
1335 3450 3958 3 
1336 3450 3449 1 
1337 3460 3459 1 
1338 3976 3460 3 
1339 3945 4671 2 
1340 3968 3967 1 
1341 4220 4672 3 
1342 3498 3690 3 
1343 3498 3497 1 
1344 3888 3498 3 
1345 3888 3887 1 
1346 3690 3888 3 
1347 3690 3689 1 
1348 4426 3662 3 
1349 4426 4425 1 
1350 4668 4426 3 
1351 4668 4667 1 
1352 3429 3693 2 
1353 4425 4955 2 
1354 4215 4437 2 
1355 4209 5451 2 
1356 4698 4448 3 
1357 4698 4697 1 
1358 4698 5442 3 
1359 4448 4210 3 
1360 4448 4447 1 
1361 4448 5442 3 
1362 4210 4698 3 
1363 4210 4209 1 
1364 5442 4210 3 
1365 5442 5441 1 
1366 4697 5457 2 
1367 4459 4707 2 
1368 5230 5470 3 
1369 5230 5229 1 
1370 5230 6240 3 
1371 5696 5230 3 
1372 5696 5695 1 
1373 5696 6240 3 
1374 6240 5470 3 
1375 6240 6239 1 
1376 6218 424 3 
1377 424 423 1 
1378 5470 5696 3 
1379 5470 5469 1 
1380 5206 5964 3 
1381 5206 5205 1 
1382 5206 5938 3 
1383 5972 5484 3 
1384 179 461 2 
1385 209 729 2 
1386 461 462 1 
1387 454 6192 3 
1388 454 453 1 
1389 451 452 1 
1390 451 5993 2 
1391 1480 1462 3 
1392 1480 1479 1 
1393 1457 1479 2 
1394 457 6199 2 
1395 1462 1496 3 
1396 1462 1461 1 
1397 216 6200 3 
1398 216 215 1 
1399 216 1714 3 
1400 6200 472 3 
1401 6200 6199 1 
1402 1714 6200 3 
1403 1714 1713 1 
1404 472 216 3 
1405 472 471 1 
1406 472 1714 3 
1407 3219 3445 2 
1408 3225 3963 2 
1409 3449 3941 2 
1410 2445 2446 1 
1411 2445 3207 2 
1412 3719 3931 2 
1413 3694 4956 3 
1414 3694 3693 1 
1415 3694 3934 3 
1416 3694 3932 3 
1417 3932 3934 3 
1418 3932 3931 1 
1419 4956 3932 3 
1420 4956 4955 1 
1421 3761 5441 2 
1422 3762 4464 3 
1423 3762 3761 1 
1424 5963 5979 2 
1425 201 5703 2 
1426 5693 5695 2 
1427 465 6239 2 
1428 5464 232 3 
1429 5464 5463 1 
1430 466 5464 3 
1431 466 465 1 
1432 5478 5968 3 
1433 5478 5477 1 
1434 180 5968 3 
1435 180 179 1 
1436 180 5478 3 
1437 706 180 3 
1438 706 705 1 
1439 706 5478 3 
1440 6164 5486 3 
1441 6164 6163 1 
1442 5676 6164 3 
1443 5676 5675 1 
1444 705 6191 2 
1445 5486 5676 3 
1446 5486 5485 1 
1447 6250 504 3 
1448 6250 6249 1 
1449 504 6238 3 
1450 504 503 1 
1451 479 480 1 
1452 464 463 1 
1453 480 464 3 
1454 699 1215 2 
1455 1216 1458 3 
1456 1216 1215 1 
1457 1470 1216 3 
1458 1470 1469 1 
1459 1458 1470 3 
1460 1458 1457 1 
1461 970 1494 3 
1462 970 969 1 
1463 970 992 3 
1464 1486 2236 3 
1465 1486 1485 1 
1466 1486 2730 3 
1467 1486 1736 3 
1468 2190 3984 3 
1469 2190 2450 3 
1470 2190 2189 1 
1471 2450 3208 3 
1472 2450 2449 1 
1473 3208 2190 3 
1474 3208 3984 3 
1475 3208 3207 1 
1476 3984 2450 3 
1477 3984 3983 1 
1478 4194 4198 3 
1479 4194 4193 1 
1480 4194 4208 3 
1481 3934 4956 3 
1482 3934 3933 1 
1483 4464 3466 3 
1484 4464 4463 1 
1485 3466 3762 3 
1486 3466 3465 1 
1487 4508 4507 1 
1488 4252 4508 3 
1489 4982 4992 3 
1490 4982 4981 1 
1491 4714 4982 3 
1492 4714 4713 1 
1493 4992 4714 3 
1494 4992 4991 1 
1495 4981 5203 2 
1496 202 5468 3 
1497 202 201 1 
1498 202 5992 3 
1499 202 230 3 
1500 5992 5468 3 
1501 5992 5991 1 
1502 5245 5246 1 
1503 5245 5961 2 
1504 5468 230 3 
1505 5468 5467 1 
1506 5467 6215 2 
1507 232 466 3 
1508 232 231 1 
1509 6215 6216 1 
1510 231 5973 2 
1511 5477 5719 2 
1512 6238 6250 3 
1513 6238 6237 1 
1514 438 6238 3 
1515 438 437 1 
1516 438 504 3 
1517 438 6250 3 
1518 6236 994 3 
1519 6236 6235 1 
1520 468 6236 3 
1521 468 467 1 
1522 731 749 2 
1523 463 971 2 
1524 971 972 1 
1525 491 739 2 
1526 1474 1478 3 
1527 1478 1477 1 
1528 1477 1991 2 
1529 1991 1992 1 
1530 1537 1538 1 
1531 1501 1537 2 
1532 1501 1502 1 
1533 2710 2990 3 
1534 2710 2709 1 
1535 2966 2710 3 
1536 2966 2965 1 
1537 3980 3979 1 
1538 3474 3980 3 
1539 3473 3474 1 
1540 3473 4193 2 
1541 4486 3478 3 
1542 4486 4485 1 
1543 3722 3478 3 
1544 3722 3721 1 
1545 3722 4486 3 
1546 3478 3508 3 
1547 3478 3477 1 
1548 4260 4480 3 
1549 4260 4259 1 
1550 4480 4970 3 
1551 4480 4479 1 
1552 4479 4713 2 
1553 4259 4721 2 
1554 5252 5251 1 
1555 4734 5252 3 
1556 5028 4232 3 
1557 5028 5027 1 
1558 4016 5028 3 
1559 4016 4015 1 
1560 4016 5012 3 
1561 4733 4734 1 
1562 4733 5025 2 
1563 3751 4015 2 
1564 4251 4711 2 
1565 4251 4252 1 
1566 4501 4991 2 
1567 5246 5248 3 
1568 5248 5247 1 
1569 236 242 3 
1570 236 5974 3 
1571 236 235 1 
1572 5974 226 3 
1573 5974 5973 1 
1574 226 236 3 
1575 226 225 1 
1576 242 5974 3 
1577 242 226 3 
1578 242 241 1 
1579 5497 5498 1 
1580 5247 5497 2 
1581 5487 5991 2 
1582 225 6025 2 
1583 6026 5982 3 
1584 6026 6025 1 
1585 254 5982 3 
1586 254 253 1 
1587 254 6026 3 
1588 508 254 3 
1589 508 507 1 
1590 508 6026 3 
1591 5730 5729 1 
1592 46 5730 3 
1593 11 6051 2 
1594 6051 6052 1 
1595 243 475 2 
1596 475 476 1 
1597 1024 1023 1 
1598 268 1024 3 
1599 492 766 3 
1600 492 491 1 
1601 492 510 3 
1602 740 1202 3 
1603 740 739 1 
1604 740 958 3 
1605 1202 1490 3 
1606 1202 1201 1 
1607 1945 2227 2 
1608 2461 2462 1 
1609 1504 2252 3 
1610 1504 1503 1 
1611 1503 2761 2 
1612 2791 3267 2 
1613 2518 3262 3 
1614 2518 2517 1 
1615 2518 3788 3 
1616 2516 4004 3 
1617 2516 2515 1 
1618 3812 3016 3 
1619 3812 3811 1 
1620 3016 3798 3 
1621 3016 3015 1 
1622 3254 3253 1 
1623 3798 3812 3 
1624 3798 3797 1 
1625 3492 3254 3 
1626 3477 3721 2 
1627 3491 3492 1 
1628 3491 4485 2 
1629 4757 4758 1 
1630 4223 4224 1 
1631 4223 4757 2 
1632 4722 4990 3 
1633 4722 4721 1 
1634 5222 4722 3 
1635 5222 5221 1 
1636 4284 5222 3 
1637 4284 4283 1 
1638 4284 4722 3 
1639 4284 4990 3 
1640 4990 5222 3 
1641 4990 4989 1 
1642 4758 4724 3 
1643 4724 4723 1 
1644 253 6235 2 
1645 247 5753 2 
1646 5784 6038 3 
1647 5255 5747 2 
1648 6038 6037 1 
1649 5754 5518 3 
1650 5754 5753 1 
1651 490 5754 3 
1652 490 489 1 
1653 24 474 3 
1654 24 23 1 
1655 24 6018 3 
1656 24 6014 3 
1657 6011 6021 2 
1658 5518 490 3 
1659 5518 5517 1 
1660 6014 6018 3 
1661 6014 6013 1 
1662 6018 474 3 
1663 6018 6017 1 
1664 474 6014 3 
1665 474 473 1 
1666 33 501 2 
1667 501 502 1 
1668 1011 1483 2 
1669 17 18 1 
1670 1012 782 3 
1671 1012 1011 1 
1672 1012 1030 3 
1673 1012 1276 3 
1674 782 1276 3 
1675 782 781 1 
1676 1276 1030 3 
1677 1276 1275 1 
1678 1030 782 3 
1679 1030 1029 1 
1680 502 1022 3 
1681 502 516 3 
1682 526 522 3 
1683 526 1022 3 
1684 711 721 2 
1685 768 1022 3 
1686 516 284 3 
1687 284 283 1 
1688 284 502 3 
1689 48 516 3 
1690 48 284 3 
1691 48 764 3 
1692 515 516 1 
1693 515 1263 2 
1694 270 522 3 
1695 270 768 3 
1696 270 526 3 
1697 522 521 1 
1698 522 768 3 
1699 1013 1241 2 
1700 781 1523 2 
1701 535 1021 2 
1702 1021 1022 1 
1703 741 742 1 
1704 741 973 2 
1705 310 309 1 
1706 310 1246 3 
1707 505 506 1 
1708 505 743 2 
1709 3 747 2 
1710 485 1239 2 
1711 1020 536 3 
1712 1020 1019 1 
1713 1758 1020 3 
1714 1758 1757 1 
1715 1738 486 3 
1716 1738 1737 1 
1717 536 1002 3 
1718 536 535 1 
1719 536 1758 3 
1720 486 1242 3 
1721 486 485 1 
1722 1242 1738 3 
1723 1242 1241 1 
1724 1002 1020 3 
1725 1002 1001 1 
1726 1002 1758 3 
1727 509 1243 2 
1728 1008 1280 3 
1729 1008 1007 1 
1730 1008 1508 3 
1731 1508 1280 3 
1732 1508 1507 1 
1733 1508 1786 3 
1734 1280 1786 3 
1735 1280 1279 1 
1736 1279 2019 2 
1737 2770 2294 3 
1738 2770 2769 1 
1739 2294 2266 3 
1740 2294 2293 1 
1741 2266 2770 3 
1742 2266 2265 1 
1743 1511 1512 1 
1744 1511 1743 2 
1745 1743 1744 1 
1746 2253 2254 1 
1747 1723 2253 2 
1748 1751 2769 2 
1749 2023 2293 2 
1750 1237 2471 2 
1751 2785 2786 1 
1752 2525 2785 2 
1753 2009 2505 2 