ITEM: TIMESTEP
15840
ITEM: NUMBER OF ENTRIES
4178
ITEM: BOX BOUNDS pp pp ff
0.0000000000000000e+00 7.2168784000000002e+01
0.0000000000000000e+00 7.2168784000000002e+01
0.0000000000000000e+00 1.2000000000000000e+01
ITEM: ENTRIES index c_1[1] c_1[2] c_1[3]
1 6010 6242 3 
2 6242 6241 1 
3 512 22 3 
4 253 254 1 
5 22 21 1 
6 234 233 1 
7 506 234 3 
8 763 764 1 
9 515 516 1 
10 1241 1242 1 
11 1501 1502 1 
12 1761 1762 1 
13 1011 1012 1 
14 1515 1516 1 
15 1525 1526 1 
16 2732 2252 3 
17 2252 2251 1 
18 2961 2962 1 
19 2731 2732 1 
20 2247 2248 1 
21 2521 2522 1 
22 3526 3525 1 
23 3512 3526 3 
24 3253 3254 1 
25 3493 4021 2 
26 4021 4022 1 
27 3503 3504 1 
28 3501 3502 1 
29 4499 4500 1 
30 4741 4742 1 
31 4757 4758 1 
32 4755 4756 1 
33 4753 4754 1 
34 4753 5533 2 
35 5502 5501 1 
36 6224 6008 3 
37 6008 6007 1 
38 6223 6224 1 
39 257 258 1 
40 5765 5766 1 
41 5765 6013 2 
42 12 34 3 
43 6013 6014 1 
44 34 33 1 
45 251 252 1 
46 501 502 1 
47 270 522 3 
48 270 768 3 
49 270 526 3 
50 768 1022 3 
51 522 521 1 
52 522 768 3 
53 526 522 3 
54 526 1022 3 
55 1001 1002 1 
56 1019 1020 1 
57 283 284 1 
58 1039 1040 1 
59 271 272 1 
60 1279 1280 1 
61 1273 1274 1 
62 2992 2778 3 
63 2992 2991 1 
64 2992 3002 3 
65 2778 3006 3 
66 2778 2777 1 
67 2535 2536 1 
68 3006 2992 3 
69 3006 3005 1 
70 3002 2778 3 
71 3002 3001 1 
72 3002 3006 3 
73 1995 1996 1 
74 2531 2532 1 
75 2511 2512 1 
76 2511 2767 2 
77 3015 3016 1 
78 3511 3512 1 
79 3495 3496 1 
80 3303 3304 1 
81 4011 4012 1 
82 3797 3798 1 
83 4263 4264 1 
84 4048 4047 1 
85 4276 4048 3 
86 4275 4276 1 
87 4282 4281 1 
88 5036 4282 3 
89 4521 4522 1 
90 5021 5022 1 
91 5521 5522 1 
92 5281 5282 1 
93 6231 6232 1 
94 247 248 1 
95 247 5753 2 
96 511 512 1 
97 511 21 2 
98 541 542 1 
99 23 24 1 
100 273 274 1 
101 273 541 2 
102 261 531 2 
103 531 532 1 
104 767 768 1 
105 1067 1068 1 
106 535 536 1 
107 535 1021 2 
108 777 778 1 
109 1053 1054 1 
110 1031 1032 1 
111 1521 1522 1 
112 1283 1284 1 
113 1283 1521 2 
114 3041 3042 1 
115 2529 2530 1 
116 2281 2529 2 
117 2281 2282 1 
118 3031 3032 1 
119 2263 2264 1 
120 3290 2784 3 
121 2784 2783 1 
122 3311 3312 1 
123 3311 3547 2 
124 3547 3548 1 
125 3013 3014 1 
126 3281 3282 1 
127 5035 5036 1 
128 4291 4292 1 
129 4783 4784 1 
130 4533 4534 1 
131 5283 5284 1 
132 5525 5526 1 
133 6024 6023 1 
134 5800 6024 3 
135 11 12 1 
136 6051 6052 1 
137 537 538 1 
138 31 32 1 
139 293 294 1 
140 785 786 1 
141 1025 1026 1 
142 547 1025 2 
143 539 540 1 
144 1041 1042 1 
145 1289 1290 1 
146 1277 1278 1 
147 2061 2062 1 
148 1527 1528 1 
149 2297 2298 1 
150 2043 2044 1 
151 3291 3292 1 
152 2571 2572 1 
153 2301 2302 1 
154 4302 5292 3 
155 5292 5291 1 
156 4301 4302 1 
157 4527 4528 1 
158 4293 4294 1 
159 5797 5798 1 
160 5319 5320 1 
161 6029 6030 1 
162 5787 5788 1 
163 5787 6045 2 
164 5782 36 3 
165 35 6035 2 
166 36 35 1 
167 524 6036 3 
168 6036 6035 1 
169 322 6044 3 
170 1057 1058 1 
171 313 314 1 
172 6044 6043 1 
173 815 816 1 
174 800 799 1 
175 796 800 3 
176 827 828 1 
177 1295 1296 1 
178 1541 1542 1 
179 1571 1572 1 
180 2541 2542 1 
181 1823 1824 1 
182 1333 1334 1 
183 2331 2332 1 
184 3279 3280 1 
185 3309 3310 1 
186 3317 3318 1 
187 3047 3048 1 
188 3036 3035 1 
189 3296 3036 3 
190 3051 3052 1 
191 3305 3306 1 
192 3781 3782 1 
193 3555 3556 1 
194 3555 3781 2 
195 4325 4326 1 
196 4287 4288 1 
197 4767 4768 1 
198 4815 4816 1 
199 4315 4316 1 
200 4805 4806 1 
201 4803 4804 1 
202 4804 5296 3 
203 5296 5295 1 
204 5801 5802 1 
205 5813 5814 1 
206 5320 5532 3 
207 63 5557 2 
208 5786 5812 3 
209 6071 6072 1 
210 52 51 1 
211 323 324 1 
212 6064 52 3 
213 5806 5805 1 
214 291 292 1 
215 69 70 1 
216 551 1323 2 
217 1323 1324 1 
218 1065 1066 1 
219 41 42 1 
220 571 572 1 
221 1071 1072 1 
222 1781 1782 1 
223 1339 1340 1 
224 1073 1074 1 
225 1073 1339 2 
226 2291 2292 1 
227 2291 2353 2 
228 2353 2354 1 
229 2823 2824 1 
230 2821 2822 1 
231 2821 3317 2 
232 3565 3566 1 
233 2799 2800 1 
234 3301 3302 1 
235 3582 3322 3 
236 3322 3321 1 
237 3558 3557 1 
238 3791 3792 1 
239 3581 3582 1 
240 4066 3558 3 
241 3567 3568 1 
242 4065 4066 1 
243 3823 3824 1 
244 3331 3332 1 
245 4309 4310 1 
246 4309 4543 2 
247 4551 4552 1 
248 3568 4058 3 
249 3801 3802 1 
250 4543 4544 1 
251 4297 4298 1 
252 5049 5050 1 
253 5561 5562 1 
254 5051 5052 1 
255 5051 5573 2 
256 4573 4574 1 
257 5563 5564 1 
258 5563 5811 2 
259 6063 6064 1 
260 5812 5811 1 
261 5551 5552 1 
262 5302 5301 1 
263 5814 5302 3 
264 6083 6084 1 
265 6053 6054 1 
266 6061 6062 1 
267 75 76 1 
268 589 590 1 
269 581 582 1 
270 825 826 1 
271 1061 1062 1 
272 847 848 1 
273 1561 1562 1 
274 2077 2078 1 
275 2824 3038 3 
276 3038 3037 1 
277 2831 2832 1 
278 2063 2064 1 
279 2581 2582 1 
280 3086 2844 3 
281 3086 3085 1 
282 2335 2336 1 
283 3561 3562 1 
284 3552 3072 3 
285 3589 3590 1 
286 3793 3794 1 
287 4075 4076 1 
288 4571 4572 1 
289 4072 4322 3 
290 4072 4071 1 
291 3572 4072 3 
292 3572 3571 1 
293 4322 3572 3 
294 4322 4321 1 
295 4825 4826 1 
296 5321 5322 1 
297 6103 6104 1 
298 6087 6088 1 
299 303 304 1 
300 61 62 1 
301 6079 6080 1 
302 6081 6082 1 
303 823 824 1 
304 81 82 1 
305 81 563 2 
306 1338 1337 1 
307 812 1338 3 
308 821 822 1 
309 855 856 1 
310 811 812 1 
311 1586 1585 1 
312 1551 1552 1 
313 1574 1586 3 
314 833 834 1 
315 1573 1574 1 
316 1565 1566 1 
317 1599 1600 1 
318 2349 2350 1 
319 2349 2585 2 
320 2559 2560 1 
321 2559 2835 2 
322 2585 2586 1 
323 2835 2836 1 
324 2844 2562 3 
325 2844 2843 1 
326 3341 3342 1 
327 3072 3071 1 
328 2842 2841 1 
329 4091 4092 1 
330 3088 2842 3 
331 3343 3344 1 
332 3343 3353 2 
333 3595 3596 1 
334 3825 3826 1 
335 3853 3854 1 
336 3092 3091 1 
337 3864 3092 3 
338 4311 4312 1 
339 3821 3822 1 
340 3579 3580 1 
341 3579 3821 2 
342 4105 4106 1 
343 4323 4324 1 
344 4875 4876 1 
345 4581 4582 1 
346 4836 4835 1 
347 5079 5080 1 
348 5079 5345 2 
349 5345 5346 1 
350 5098 4836 3 
351 4339 4340 1 
352 5081 5082 1 
353 92 91 1 
354 6104 92 3 
355 5591 5592 1 
356 6089 6090 1 
357 353 354 1 
358 831 832 1 
359 343 831 2 
360 119 120 1 
361 592 350 3 
362 592 591 1 
363 861 862 1 
364 857 858 1 
365 596 1092 3 
366 1092 1091 1 
367 595 596 1 
368 595 1107 2 
369 1351 1352 1 
370 1107 1108 1 
371 1847 1848 1 
372 1858 2616 3 
373 2616 2615 1 
374 2105 2106 1 
375 2341 2342 1 
376 2845 2846 1 
377 2864 2863 1 
378 2894 2864 3 
379 3813 3814 1 
380 3607 3608 1 
381 3607 3813 2 
382 3087 3088 1 
383 3091 3335 2 
384 4107 4108 1 
385 3619 3620 1 
386 3849 3850 1 
387 4081 4082 1 
388 3851 3852 1 
389 4365 4366 1 
390 4603 4604 1 
391 5347 5348 1 
392 5637 5638 1 
393 5611 5612 1 
394 5622 5621 1 
395 102 6086 3 
396 6086 6085 1 
397 5600 5622 3 
398 5841 5842 1 
399 6109 6110 1 
400 361 362 1 
401 113 114 1 
402 1349 1350 1 
403 1091 1103 2 
404 1103 1104 1 
405 1347 1348 1 
406 621 622 1 
407 1851 1852 1 
408 2115 2116 1 
409 1605 1606 1 
410 1835 1836 1 
411 1835 2115 2 
412 2091 2092 1 
413 2363 2364 1 
414 2875 2876 1 
415 2893 2894 1 
416 2101 2102 1 
417 2101 2893 2 
418 2357 2358 1 
419 3111 3112 1 
420 3365 3366 1 
421 3884 3883 1 
422 3124 3884 3 
423 3624 3623 1 
424 3861 3862 1 
425 5103 5104 1 
426 4371 4372 1 
427 5375 5376 1 
428 5862 5874 3 
429 5862 5861 1 
430 106 5862 3 
431 106 105 1 
432 5874 106 3 
433 5874 5873 1 
434 5112 106 3 
435 5112 5111 1 
436 5112 5874 3 
437 5112 5862 3 
438 5351 5352 1 
439 5881 5882 1 
440 325 326 1 
441 101 102 1 
442 635 636 1 
443 369 370 1 
444 369 635 2 
445 123 124 1 
446 877 878 1 
447 653 654 1 
448 1401 1402 1 
449 1853 1854 1 
450 1393 1394 1 
451 1861 1862 1 
452 1615 1616 1 
453 2371 2372 1 
454 3643 3644 1 
455 2873 2874 1 
456 3375 3376 1 
457 3375 3883 2 
458 3862 3624 3 
459 3371 3372 1 
460 4612 4126 3 
461 4612 4611 1 
462 5353 5354 1 
463 5123 5124 1 
464 5123 5133 2 
465 5133 5134 1 
466 5877 5878 1 
467 5601 5602 1 
468 5372 5371 1 
469 5342 5372 3 
470 5871 5872 1 
471 371 372 1 
472 153 154 1 
473 6121 6122 1 
474 1379 1380 1 
475 1147 1148 1 
476 1609 1610 1 
477 1387 1388 1 
478 1387 1609 2 
479 1134 1136 3 
480 1623 1624 1 
481 1133 1134 1 
482 1121 1122 1 
483 1391 1392 1 
484 2117 2118 1 
485 2111 2112 1 
486 2128 2136 3 
487 2113 2114 1 
488 2625 2626 1 
489 2619 2620 1 
490 2619 2853 2 
491 2853 2854 1 
492 3143 3144 1 
493 2865 2866 1 
494 2865 3901 2 
495 3901 3902 1 
496 5151 5152 1 
497 4629 4630 1 
498 5623 5624 1 
499 5127 5128 1 
500 5127 5361 2 
501 5635 5636 1 
502 5381 5382 1 
503 5361 5362 1 
504 5625 5626 1 
505 5395 5396 1 
506 5395 5631 2 
507 5631 5632 1 
508 6141 6142 1 
509 5883 5884 1 
510 6131 6132 1 
511 121 122 1 
512 6144 5616 3 
513 5616 5615 1 
514 143 144 1 
515 141 142 1 
516 141 143 2 
517 641 642 1 
518 1149 1150 1 
519 151 152 1 
520 151 641 2 
521 1136 1135 1 
522 413 414 1 
523 413 1429 2 
524 2152 2374 3 
525 2152 2151 1 
526 2174 2152 3 
527 2174 2173 1 
528 2374 2174 3 
529 2374 2373 1 
530 2147 2148 1 
531 1882 2174 3 
532 1882 1881 1 
533 1882 2374 3 
534 1882 2152 3 
535 2131 2132 1 
536 2647 2648 1 
537 3173 3174 1 
538 2905 2906 1 
539 4633 4634 1 
540 4877 4878 1 
541 4137 4138 1 
542 4625 4626 1 
543 5373 5374 1 
544 5663 5664 1 
545 6161 6162 1 
546 6151 6152 1 
547 131 132 1 
548 397 398 1 
549 132 902 3 
550 902 901 1 
551 884 883 1 
552 1151 1152 1 
553 398 884 3 
554 1143 1144 1 
555 1883 1884 1 
556 1662 1650 3 
557 2141 2142 1 
558 2895 2896 1 
559 2661 2662 1 
560 1907 1908 1 
561 2667 2668 1 
562 2907 2908 1 
563 3165 3166 1 
564 2871 2872 1 
565 2871 2907 2 
566 3151 3152 1 
567 2933 2934 1 
568 3152 2654 3 
569 3666 3164 3 
570 3164 3163 1 
571 3153 3154 1 
572 2654 2653 1 
573 3163 3173 2 
574 3621 3622 1 
575 4142 4141 1 
576 3900 4142 3 
577 3395 3396 1 
578 4421 4422 1 
579 3899 3900 1 
580 4641 4642 1 
581 3663 3664 1 
582 3677 3678 1 
583 4135 4136 1 
584 3377 3378 1 
585 4401 4402 1 
586 3378 4134 3 
587 4134 4133 1 
588 4155 4156 1 
589 4155 4643 2 
590 4911 4912 1 
591 5403 5404 1 
592 4865 4866 1 
593 5383 5384 1 
594 5665 5666 1 
595 112 378 3 
596 112 111 1 
597 6156 112 3 
598 6156 6155 1 
599 378 6156 3 
600 378 377 1 
601 6167 6168 1 
602 111 5391 2 
603 5391 5392 1 
604 429 430 1 
605 164 163 1 
606 161 162 1 
607 422 421 1 
608 656 422 3 
609 665 666 1 
610 931 932 1 
611 1673 1674 1 
612 1161 1162 1 
613 1165 1166 1 
614 1691 1692 1 
615 1453 1454 1 
616 2161 2162 1 
617 1911 1912 1 
618 1921 1922 1 
619 2412 1924 3 
620 2414 2184 3 
621 2414 2413 1 
622 2184 1672 3 
623 2184 2183 1 
624 1893 1894 1 
625 1672 2414 3 
626 1672 1671 1 
627 1924 1923 1 
628 2411 2412 1 
629 2655 2656 1 
630 2683 2684 1 
631 3631 3632 1 
632 3631 3679 2 
633 3679 3680 1 
634 2663 2664 1 
635 2663 2683 2 
636 3681 3682 1 
637 3891 3892 1 
638 4674 4428 3 
639 4428 4427 1 
640 4403 4404 1 
641 4643 4644 1 
642 4922 4196 3 
643 4921 4922 1 
644 4663 4664 1 
645 4415 4416 1 
646 4415 5163 2 
647 5163 5164 1 
648 5925 5926 1 
649 5901 5902 1 
650 6181 6182 1 
651 181 182 1 
652 163 6181 2 
653 205 206 1 
654 401 402 1 
655 673 674 1 
656 655 656 1 
657 459 460 1 
658 921 922 1 
659 1925 1926 1 
660 1155 1156 1 
661 1155 1913 2 
662 1913 1914 1 
663 2431 2432 1 
664 2431 2437 2 
665 2437 2438 1 
666 2901 2902 1 
667 3674 3673 1 
668 2925 2926 1 
669 3172 3674 3 
670 2917 2918 1 
671 3201 3202 1 
672 3401 3402 1 
673 4157 4158 1 
674 3411 3412 1 
675 3413 3414 1 
676 3675 3676 1 
677 4153 4154 1 
678 4691 4692 1 
679 4673 4674 1 
680 4423 4424 1 
681 4699 4700 1 
682 5174 5446 3 
683 5174 5173 1 
684 5186 5174 3 
685 5186 5185 1 
686 5415 5416 1 
687 5662 5430 3 
688 5443 5444 1 
689 5691 5692 1 
690 5911 5912 1 
691 173 174 1 
692 173 5911 2 
693 6192 6191 1 
694 432 6192 3 
695 952 951 1 
696 1197 1198 1 
697 702 952 3 
698 943 944 1 
699 701 702 1 
700 935 936 1 
701 1215 1216 1 
702 671 672 1 
703 671 921 2 
704 1444 1443 1 
705 936 682 3 
706 955 956 1 
707 682 681 1 
708 1411 1412 1 
709 1933 1934 1 
710 2443 2444 1 
711 2443 2467 2 
712 2691 2692 1 
713 3171 3172 1 
714 3711 3712 1 
715 3193 3194 1 
716 3421 3422 1 
717 3421 3711 2 
718 3671 3672 1 
719 3422 3702 3 
720 3702 3701 1 
721 3683 3684 1 
722 4945 4946 1 
723 5446 5186 3 
724 5446 5445 1 
725 5675 5676 1 
726 5956 5955 1 
727 5183 5184 1 
728 5183 5453 2 
729 5444 5956 3 
730 5931 5932 1 
731 5933 5934 1 
732 431 432 1 
733 5918 5917 1 
734 6184 5918 3 
735 705 706 1 
736 705 6191 2 
737 481 482 1 
738 221 222 1 
739 471 472 1 
740 471 661 2 
741 700 1444 3 
742 699 700 1 
743 1225 1226 1 
744 1951 1952 1 
745 1704 1172 3 
746 1172 1171 1 
747 1203 1204 1 
748 1665 1666 1 
749 1204 1716 3 
750 1716 1715 1 
751 2467 2468 1 
752 2451 2452 1 
753 3431 3432 1 
754 2693 2694 1 
755 2689 2690 1 
756 3456 3455 1 
757 3222 3456 3 
758 3443 3444 1 
759 2945 2946 1 
760 3975 3976 1 
761 3701 3975 2 
762 4449 4450 1 
763 3423 3424 1 
764 3973 3974 1 
765 4683 4684 1 
766 4684 4162 3 
767 4215 4216 1 
768 4215 4437 2 
769 4941 4942 1 
770 5209 5210 1 
771 5453 5454 1 
772 5673 5674 1 
773 5207 5208 1 
774 5421 5422 1 
775 5421 5677 2 
776 5694 5706 3 
777 5694 5693 1 
778 5677 5678 1 
779 5962 5694 3 
780 5962 5961 1 
781 204 5966 3 
782 5966 5965 1 
783 423 424 1 
784 6221 6222 1 
785 6163 6164 1 
786 662 661 1 
787 224 662 3 
788 211 212 1 
789 1941 1942 1 
790 1211 1212 1 
791 1211 1221 2 
792 1717 1718 1 
793 1993 1994 1 
794 1943 1944 1 
795 2237 2238 1 
796 1961 1962 1 
797 2455 2456 1 
798 1967 1968 1 
799 1967 2455 2 
800 2445 2446 1 
801 2701 2702 1 
802 3221 3222 1 
803 3191 3192 1 
804 3979 3983 2 
805 3474 3980 3 
806 3980 3979 1 
807 3961 3962 1 
808 4439 4440 1 
809 4963 4964 1 
810 4204 4203 1 
811 4471 4963 2 
812 3972 4204 3 
813 4437 4438 1 
814 4951 4952 1 
815 5473 5474 1 
816 5223 5224 1 
817 5706 5962 3 
818 5706 5705 1 
819 203 204 1 
820 6195 6196 1 
821 483 484 1 
822 191 192 1 
823 191 483 2 
824 479 480 1 
825 739 740 1 
826 1451 1452 1 
827 1221 1222 1 
828 1713 1714 1 
829 1956 1955 1 
830 1483 1484 1 
831 1978 1956 3 
832 2461 2462 1 
833 1955 2723 2 
834 2723 2724 1 
835 2483 2484 1 
836 2244 2706 3 
837 2737 2738 1 
838 2224 2972 3 
839 2224 2223 1 
840 3737 3738 1 
841 4463 4464 1 
842 3971 3972 1 
843 3971 3993 2 
844 3993 3994 1 
845 3951 3952 1 
846 4213 4214 1 
847 4225 4226 1 
848 5222 4990 3 
849 5222 5221 1 
850 4722 5222 3 
851 4722 4721 1 
852 4725 4726 1 
853 4990 4722 3 
854 4990 4989 1 
855 5509 5510 1 
856 4953 4954 1 
857 5703 5704 1 
858 5731 5732 1 
859 461 462 1 
860 5713 6005 2 
861 5995 5996 1 
862 495 496 1 
863 231 232 1 
864 733 734 1 
865 1239 1240 1 
866 485 1239 2 
867 1973 1974 1 
868 1476 1488 3 
869 1488 1487 1 
870 1755 1756 1 
871 997 998 1 
872 1491 1492 1 
873 2488 2500 3 
874 2488 2487 1 
875 2474 2488 3 
876 2474 2473 1 
877 2242 2224 3 
878 2242 2241 1 
879 2972 2242 3 
880 2972 2971 1 
881 2500 2474 3 
882 2500 2499 1 
883 3209 3210 1 
884 2976 3464 3 
885 2975 2976 1 
886 3231 3232 1 
887 3483 3484 1 
888 3483 3741 2 
889 3964 3963 1 
890 3232 3964 3 
891 3491 3492 1 
892 3225 3226 1 
893 3225 3963 2 
894 3243 3244 1 
895 3243 4491 2 
896 4491 4492 1 
897 4987 4988 1 
898 4223 4224 1 
899 4991 4992 1 
900 4977 4978 1 
901 5733 5734 1 
902 5471 5472 1 
903 6233 6234 1 
904 5714 5713 1 
905 5724 5714 3 
906 475 476 1 
907 235 236 1 
908 243 475 2 
909 6005 6006 1 
910 6002 244 3 
911 244 243 1 
912 6009 6010 1 
913 6017 6018 1 
914 473 474 1 
915 486 485 1 
916 1242 486 3 
917 1475 1476 1 
918 1251 1252 1 
919 2245 2246 1 
920 1485 1486 1 
921 1503 1504 1 
922 1233 1234 1 
923 2740 2739 1 
924 2743 2744 1 
925 3494 3493 1 
926 3991 3992 1 
927 3465 3466 1 
928 4221 4222 1 
929 4247 4248 1 
930 3761 3762 1 
931 4503 4504 1 
932 4724 4723 1 
933 4758 4724 3 
934 4735 4736 1 
935 4493 4494 1 
936 4493 4735 2 
937 5737 5738 1 
938 5481 5482 1 
939 5249 5250 1 
940 5249 5481 2 
941 5741 5742 1 
942 5983 5984 1 
943 6001 6002 1 
944 529 530 1 
945 45 46 1 
946 25 26 1 
947 17 18 1 
948 505 506 1 
949 269 270 1 
950 233 269 2 
951 745 746 1 
952 1005 1006 1 
953 310 309 1 
954 753 754 1 
955 764 310 3 
956 525 526 1 
957 1014 1256 3 
958 1256 1255 1 
959 1243 1244 1 
960 1013 1014 1 
961 1507 1508 1 
962 1785 1786 1 
963 1763 1764 1 
964 2005 2006 1 
965 2226 1272 3 
966 1272 1271 1 
967 1769 1770 1 
968 2011 2012 1 
969 2255 2256 1 
970 1765 1766 1 
971 2007 2008 1 
972 2271 2272 1 
973 2769 2770 1 
974 1751 1752 1 
975 1751 2769 2 
976 2016 2004 3 
977 2016 2015 1 
978 2016 2030 3 
979 2004 2030 3 
980 2004 2003 1 
981 2030 1514 3 
982 2030 2029 1 
983 2009 2010 1 
984 2495 2496 1 
985 2503 2504 1 
986 3255 3256 1 
987 2773 2774 1 
988 2018 2276 3 
989 2018 2017 1 
990 2279 2509 2 
991 2481 2482 1 
992 2981 2982 1 
993 2513 2514 1 
994 3011 3012 1 
995 2259 3011 2 
996 3517 3518 1 
997 3010 3986 3 
998 3010 3009 1 
999 3510 3010 3 
1000 3510 3509 1 
1001 3986 3510 3 
1002 3986 3985 1 
1003 2995 2996 1 
1004 3030 3029 1 
1005 3756 3030 3 
1006 3767 3768 1 
1007 4009 4010 1 
1008 4257 4258 1 
1009 4012 3770 3 
1010 3770 3769 1 
1011 4237 4238 1 
1012 4007 4008 1 
1013 4231 4232 1 
1014 4254 4253 1 
1015 4984 4254 3 
1016 3721 3722 1 
1017 3773 3774 1 
1018 4744 4743 1 
1019 4019 4020 1 
1020 4497 4498 1 
1021 4515 4516 1 
1022 4515 4741 2 
1023 4752 4751 1 
1024 4761 4762 1 
1025 5790 4752 3 
1026 5503 5504 1 
1027 4283 4284 1 
1028 4745 4746 1 
1029 5505 5506 1 
1030 5534 5264 3 
1031 5013 5014 1 
1032 5017 5018 1 
1033 5017 5239 2 
1034 5239 5240 1 
1035 5264 5263 1 
1036 5533 5534 1 
1037 5020 5019 1 
1038 5758 5020 3 
1039 5499 5500 1 
1040 5761 5762 1 
1041 5539 5540 1 
1042 5981 6007 2 
1043 507 508 1 
1044 13 14 1 
1045 9 10 1 
1046 6021 6022 1 
1047 3 4 1 
1048 3 747 2 
1049 747 748 1 
1050 757 758 1 
1051 1018 1017 1 
1052 1274 1018 3 
1053 1776 1775 1 
1054 1028 1776 3 
1055 1034 2020 3 
1056 1034 1033 1 
1057 1780 1034 3 
1058 1780 1779 1 
1059 2020 1780 3 
1060 2020 2019 1 
1061 1261 1262 1 
1062 1533 1534 1 
1063 1743 1744 1 
1064 1770 1270 3 
1065 2283 2284 1 
1066 1270 1269 1 
1067 1519 1520 1 
1068 1519 2275 2 
1069 2759 2760 1 
1070 2759 3251 2 
1071 2765 2766 1 
1072 2771 2772 1 
1073 2517 2518 1 
1074 3788 3262 3 
1075 3262 3261 1 
1076 2767 2768 1 
1077 3271 3272 1 
1078 3241 3242 1 
1079 3755 3756 1 
1080 2768 2792 3 
1081 2261 2262 1 
1082 3003 3004 1 
1083 3269 3270 1 
1084 3527 3528 1 
1085 3527 3777 2 
1086 3777 3778 1 
1087 3513 3514 1 
1088 4017 4018 1 
1089 4017 4285 2 
1090 3743 3744 1 
1091 4270 4272 3 
1092 4270 4269 1 
1093 4270 4278 3 
1094 4278 4266 3 
1095 4278 4277 1 
1096 4272 4278 3 
1097 4272 4271 1 
1098 4513 4514 1 
1099 4266 4272 3 
1100 4266 4265 1 
1101 4266 4270 3 
1102 4809 4810 1 
1103 5789 5790 1 
1104 4262 4516 3 
1105 5289 5290 1 
1106 5011 5012 1 
1107 5001 5002 1 
1108 5001 5263 2 
1109 5749 5750 1 
1110 4774 4773 1 
1111 5022 4774 3 
1112 5275 5276 1 
1113 5493 5494 1 
1114 5261 5262 1 
1115 5003 5004 1 
1116 5003 5515 2 
1117 5515 5516 1 
1118 6025 6026 1 
1119 5763 5764 1 
1120 6031 6032 1 
1121 5015 5016 1 
1122 6037 6038 1 
1123 6033 6034 1 
1124 5517 5518 1 
1125 5753 5754 1 
1126 6041 6042 1 
1127 775 776 1 
1128 1021 1022 1 
1129 1024 1023 1 
1130 513 514 1 
1131 268 1024 3 
1132 1043 1044 1 
1133 759 760 1 
1134 1760 1536 3 
1135 1760 1759 1 
1136 1511 1512 1 
1137 771 772 1 
1138 2041 2042 1 
1139 761 762 1 
1140 761 1037 2 
1141 1262 1530 3 
1142 1772 1282 3 
1143 1282 1281 1 
1144 1771 1772 1 
1145 1801 1802 1 
1146 2307 2308 1 
1147 1530 1529 1 
1148 1537 1538 1 
1149 2024 2023 1 
1150 1744 2024 3 
1151 1773 1774 1 
1152 1291 1292 1 
1153 2285 2286 1 
1154 2763 2764 1 
1155 2293 2294 1 
1156 1787 1788 1 
1157 2040 1544 3 
1158 3252 3251 1 
1159 2282 3252 3 
1160 3021 3022 1 
1161 3020 2798 3 
1162 3020 3019 1 
1163 3020 3546 3 
1164 3020 3026 3 
1165 3546 3026 3 
1166 3546 3545 1 
1167 3026 2798 3 
1168 3026 3025 1 
1169 2798 3546 3 
1170 2798 2797 1 
1171 2792 2791 1 
1172 3535 3536 1 
1173 3261 3545 2 
1174 3304 3550 3 
1175 3263 3535 2 
1176 3550 3549 1 
1177 4026 3746 3 
1178 3549 3779 2 
1179 3543 3544 1 
1180 3531 3532 1 
1181 3789 3790 1 
1182 4039 4040 1 
1183 3783 3784 1 
1184 4029 4030 1 
1185 4031 4032 1 
1186 4523 4524 1 
1187 4763 5023 2 
1188 5023 5024 1 
1189 4013 4014 1 
1190 4771 4772 1 
1191 4539 4540 1 
1192 4281 4787 2 
1193 4788 4787 1 
1194 4775 4776 1 
1195 4775 5011 2 
1196 4519 4520 1 
1197 5029 5030 1 
1198 5286 5776 3 
1199 5799 5800 1 
1200 5771 5772 1 
1201 499 500 1 
1202 255 256 1 
1203 5773 5774 1 
1204 6011 6012 1 
1205 262 261 1 
1206 321 322 1 
1207 39 40 1 
1208 32 262 3 
1209 773 774 1 
1210 267 268 1 
1211 804 548 3 
1212 804 803 1 
1213 558 548 3 
1214 558 557 1 
1215 558 804 3 
1216 528 804 3 
1217 528 527 1 
1218 528 558 3 
1219 548 528 3 
1220 548 547 1 
1221 47 48 1 
1222 47 517 2 
1223 517 518 1 
1224 793 794 1 
1225 795 796 1 
1226 1055 1056 1 
1227 1307 1308 1 
1228 801 802 1 
1229 1539 1540 1 
1230 1777 1778 1 
1231 1303 1304 1 
1232 1572 1302 3 
1233 2021 2022 1 
1234 2025 2026 1 
1235 2025 2807 2 
1236 2807 2808 1 
1237 1797 1798 1 
1238 2539 2540 1 
1239 2313 2314 1 
1240 2313 2775 2 
1241 2543 2544 1 
1242 2775 2776 1 
1243 2781 2782 1 
1244 3055 3056 1 
1245 3289 3290 1 
1246 3045 3046 1 
1247 3534 2524 3 
1248 3534 3533 1 
1249 3264 3034 3 
1250 3264 3263 1 
1251 3538 3264 3 
1252 3538 3537 1 
1253 3034 3538 3 
1254 3034 3033 1 
1255 2524 3316 3 
1256 2524 2523 1 
1257 3316 3534 3 
1258 3316 3315 1 
1259 3295 3296 1 
1260 3515 3516 1 
1261 3796 4062 3 
1262 4062 4061 1 
1263 3560 4062 3 
1264 3294 3796 3 
1265 3521 3522 1 
1266 4027 4028 1 
1267 3573 3574 1 
1268 4052 3804 3 
1269 3804 3803 1 
1270 3539 3540 1 
1271 4547 4548 1 
1272 4764 4532 3 
1273 4764 4763 1 
1274 4299 4300 1 
1275 4556 4764 3 
1276 4556 4555 1 
1277 4532 4550 3 
1278 4532 4531 1 
1279 4532 4556 3 
1280 4550 4764 3 
1281 4550 4549 1 
1282 4550 4556 3 
1283 4791 4792 1 
1284 4796 4795 1 
1285 5277 5278 1 
1286 5277 5283 2 
1287 5054 5254 3 
1288 5054 5053 1 
1289 5033 5034 1 
1290 4295 4296 1 
1291 5254 5032 3 
1292 5254 5253 1 
1293 5032 5054 3 
1294 5032 5031 1 
1295 5037 5038 1 
1296 5038 4796 3 
1297 5549 5550 1 
1298 5823 5824 1 
1299 5543 5544 1 
1300 5570 5569 1 
1301 5310 5570 3 
1302 5299 5300 1 
1303 5271 5272 1 
1304 5285 5286 1 
1305 5532 5531 1 
1306 5779 5780 1 
1307 5043 5044 1 
1308 5043 5317 2 
1309 5309 5310 1 
1310 5531 5781 2 
1311 5781 5782 1 
1312 6065 6066 1 
1313 6045 6046 1 
1314 5777 5778 1 
1315 523 524 1 
1316 5791 5792 1 
1317 797 798 1 
1318 317 318 1 
1319 1058 552 3 
1320 329 330 1 
1321 554 546 3 
1322 554 553 1 
1323 552 551 1 
1324 546 792 3 
1325 546 545 1 
1326 792 554 3 
1327 792 791 1 
1328 71 72 1 
1329 295 296 1 
1330 805 806 1 
1331 1051 1052 1 
1332 1791 1792 1 
1333 577 578 1 
1334 577 1051 2 
1335 533 534 1 
1336 1063 1064 1 
1337 1309 1310 1 
1338 1309 1315 2 
1339 1570 1532 3 
1340 1570 1569 1 
1341 1532 1554 3 
1342 1532 1531 1 
1343 1554 1570 3 
1344 1554 1553 1 
1345 1754 2032 3 
1346 1754 1753 1 
1347 2032 1548 3 
1348 2032 2031 1 
1349 1548 1754 3 
1350 1548 1547 1 
1351 1549 1550 1 
1352 1302 1301 1 
1353 1286 1804 3 
1354 1286 1285 1 
1355 1297 1298 1 
1356 1804 780 3 
1357 1804 1803 1 
1358 2053 2054 1 
1359 2325 2326 1 
1360 1795 1796 1 
1361 1795 2053 2 
1362 1305 1306 1 
1363 1305 2325 2 
1364 1321 1322 1 
1365 1299 1300 1 
1366 2045 2046 1 
1367 2033 2034 1 
1368 2067 2068 1 
1369 2067 2587 2 
1370 1577 1578 1 
1371 2035 2036 1 
1372 2563 2564 1 
1373 2563 2817 2 
1374 2817 2818 1 
1375 1805 1806 1 
1376 2519 2520 1 
1377 2551 2552 1 
1378 2801 2802 1 
1379 2557 2558 1 
1380 3325 3326 1 
1381 2553 2554 1 
1382 3065 3066 1 
1383 3065 3325 2 
1384 3043 3044 1 
1385 3043 3327 2 
1386 3283 3284 1 
1387 3559 3560 1 
1388 3053 3559 2 
1389 3319 3320 1 
1390 3795 3796 1 
1391 2803 2804 1 
1392 2803 3039 2 
1393 3775 3776 1 
1394 4051 4052 1 
1395 4307 4308 1 
1396 4317 4318 1 
1397 3785 3786 1 
1398 4535 4536 1 
1399 2795 2796 1 
1400 3805 3806 1 
1401 3811 3812 1 
1402 4553 4554 1 
1403 4085 4086 1 
1404 4069 4070 1 
1405 4557 4558 1 
1406 4273 4274 1 
1407 4789 4790 1 
1408 4531 4553 2 
1409 5297 5298 1 
1410 5311 5312 1 
1411 4053 4054 1 
1412 4053 4305 2 
1413 4541 4542 1 
1414 4305 4306 1 
1415 5057 5058 1 
1416 4313 4314 1 
1417 4313 5057 2 
1418 4567 4568 1 
1419 4567 5331 2 
1420 4801 4802 1 
1421 5317 5318 1 
1422 4303 4304 1 
1423 4511 4512 1 
1424 4537 4538 1 
1425 5063 5064 1 
1426 5582 5040 3 
1427 5582 5581 1 
1428 5565 5566 1 
1429 5545 5546 1 
1430 5332 5331 1 
1431 5294 5332 3 
1432 5313 5545 2 
1433 5558 5557 1 
1434 5314 5582 3 
1435 5314 5313 1 
1436 5040 5314 3 
1437 5040 5039 1 
1438 5272 5558 3 
1439 5793 5794 1 
1440 6067 6068 1 
1441 5803 5804 1 
1442 5552 5542 3 
1443 318 56 3 
1444 5542 5541 1 
1445 56 55 1 
1446 279 280 1 
1447 6054 5806 3 
1448 67 68 1 
1449 560 66 3 
1450 560 559 1 
1451 57 58 1 
1452 57 6075 2 
1453 569 570 1 
1454 543 544 1 
1455 300 299 1 
1456 60 560 3 
1457 60 59 1 
1458 60 6056 3 
1459 66 60 3 
1460 66 65 1 
1461 43 44 1 
1462 6057 6058 1 
1463 65 807 2 
1464 79 80 1 
1465 567 568 1 
1466 783 784 1 
1467 579 580 1 
1468 1315 1316 1 
1469 1059 1060 1 
1470 1313 1314 1 
1471 1311 1312 1 
1472 1830 1829 1 
1473 1340 1830 3 
1474 2303 2304 1 
1475 1815 1816 1 
1476 1815 1829 2 
1477 2059 2060 1 
1478 2059 2287 2 
1479 2287 2288 1 
1480 1825 1826 1 
1481 2323 2324 1 
1482 2311 2312 1 
1483 2065 2066 1 
1484 2811 2812 1 
1485 2327 2328 1 
1486 2047 2048 1 
1487 3057 3058 1 
1488 2820 2794 3 
1489 3329 3330 1 
1490 2794 2793 1 
1491 2839 3329 2 
1492 3349 3350 1 
1493 3299 3300 1 
1494 3049 3050 1 
1495 3049 3349 2 
1496 3054 3053 1 
1497 3067 3068 1 
1498 3829 3830 1 
1499 3297 3298 1 
1500 3541 3542 1 
1501 3541 3791 2 
1502 3076 3054 3 
1503 3575 3576 1 
1504 3815 3816 1 
1505 4049 4050 1 
1506 4058 4057 1 
1507 4073 4074 1 
1508 4577 4578 1 
1509 4817 4818 1 
1510 4797 4798 1 
1511 4797 5055 2 
1512 5073 5074 1 
1513 5069 5070 1 
1514 5333 5334 1 
1515 4812 4808 3 
1516 4812 4811 1 
1517 4808 5056 3 
1518 4808 4807 1 
1519 5056 4812 3 
1520 5056 5055 1 
1521 4559 4560 1 
1522 4559 4561 2 
1523 5337 5338 1 
1524 4813 4814 1 
1525 4813 5565 2 
1526 5573 5574 1 
1527 5041 5042 1 
1528 5041 5785 2 
1529 5329 5330 1 
1530 5785 5786 1 
1531 5819 5820 1 
1532 5808 5807 1 
1533 5825 5826 1 
1534 5825 6063 2 
1535 6062 64 3 
1536 64 63 1 
1537 6027 6028 1 
1538 5547 5548 1 
1539 5821 5822 1 
1540 6075 6076 1 
1541 562 300 3 
1542 83 307 2 
1543 315 316 1 
1544 315 6057 2 
1545 6093 6094 1 
1546 307 308 1 
1547 77 78 1 
1548 6094 84 3 
1549 327 328 1 
1550 337 338 1 
1551 337 355 2 
1552 355 356 1 
1553 835 836 1 
1554 95 96 1 
1555 565 566 1 
1556 1076 1075 1 
1557 819 820 1 
1558 826 1076 3 
1559 1083 1084 1 
1560 1083 1563 2 
1561 609 610 1 
1562 1564 1563 1 
1563 1070 1564 3 
1564 1318 1088 3 
1565 1088 1087 1 
1566 1559 1560 1 
1567 1069 1070 1 
1568 1317 1318 1 
1569 1085 1086 1 
1570 1089 1090 1 
1571 1813 1814 1 
1572 2579 2580 1 
1573 1575 1576 1 
1574 2079 2080 1 
1575 1821 1822 1 
1576 2107 2108 1 
1577 1845 1846 1 
1578 1576 2084 3 
1579 2815 2816 1 
1580 1793 1794 1 
1581 2319 2320 1 
1582 2315 2316 1 
1583 2081 2082 1 
1584 2081 2089 2 
1585 2851 2852 1 
1586 2051 2052 1 
1587 2051 2315 2 
1588 2071 2311 2 
1589 2072 2071 1 
1590 3037 3095 2 
1591 2338 2072 3 
1592 3603 3604 1 
1593 3079 3080 1 
1594 2562 3086 3 
1595 2562 2561 1 
1596 2837 2838 1 
1597 2837 3059 2 
1598 2813 2814 1 
1599 2805 2806 1 
1600 3061 3062 1 
1601 2567 2568 1 
1602 2819 2820 1 
1603 3068 3564 3 
1604 3564 3563 1 
1605 3569 3570 1 
1606 3551 3552 1 
1607 2583 2584 1 
1608 3563 3831 2 
1609 3799 3800 1 
1610 4063 4064 1 
1611 4059 4060 1 
1612 4329 4330 1 
1613 4329 4827 2 
1614 4341 4342 1 
1615 4077 4078 1 
1616 4328 4327 1 
1617 3828 4328 3 
1618 3827 3828 1 
1619 4827 4828 1 
1620 4587 4588 1 
1621 5061 5062 1 
1622 4605 4606 1 
1623 4605 5061 2 
1624 4833 4834 1 
1625 5071 5072 1 
1626 5085 5086 1 
1627 4561 4562 1 
1628 5065 5066 1 
1629 4563 4564 1 
1630 4832 5088 3 
1631 4800 4799 1 
1632 5088 5087 1 
1633 5326 4800 3 
1634 4799 5099 2 
1635 5327 5328 1 
1636 73 74 1 
1637 5816 5815 1 
1638 74 5816 3 
1639 87 88 1 
1640 5559 5560 1 
1641 561 562 1 
1642 6073 6074 1 
1643 340 86 3 
1644 340 339 1 
1645 335 336 1 
1646 6098 340 3 
1647 6098 6097 1 
1648 86 6098 3 
1649 86 85 1 
1650 107 108 1 
1651 597 598 1 
1652 575 576 1 
1653 305 306 1 
1654 359 360 1 
1655 564 563 1 
1656 82 564 3 
1657 1831 1832 1 
1658 1341 1342 1 
1659 1341 1831 2 
1660 829 830 1 
1661 1582 842 3 
1662 842 841 1 
1663 2084 2083 1 
1664 1335 1336 1 
1665 1335 1809 2 
1666 1839 1840 1 
1667 2074 1810 3 
1668 2599 2600 1 
1669 1097 1098 1 
1670 1810 1809 1 
1671 2089 2090 1 
1672 2577 2578 1 
1673 1819 1820 1 
1674 1819 2577 2 
1675 2337 2338 1 
1676 2330 2329 1 
1677 2594 2330 3 
1678 2592 2858 3 
1679 2592 2591 1 
1680 2858 3096 3 
1681 2858 2857 1 
1682 3096 2592 3 
1683 3096 3095 1 
1684 2843 3073 2 
1685 2087 2088 1 
1686 2859 2860 1 
1687 3073 3074 1 
1688 3077 3359 2 
1689 3077 3078 1 
1690 3359 3360 1 
1691 2611 2612 1 
1692 2611 3083 2 
1693 3078 3820 3 
1694 3615 3616 1 
1695 3602 3832 3 
1696 3832 3831 1 
1697 3820 3819 1 
1698 4097 4098 1 
1699 3833 3834 1 
1700 3583 3584 1 
1701 3583 3599 2 
1702 3599 3600 1 
1703 3859 3860 1 
1704 3601 3602 1 
1705 4321 4351 2 
1706 4351 4352 1 
1707 4589 4590 1 
1708 4087 4088 1 
1709 4087 4093 2 
1710 4089 4090 1 
1711 4335 4336 1 
1712 4821 4822 1 
1713 4601 4602 1 
1714 4331 4332 1 
1715 3845 3846 1 
1716 4569 4570 1 
1717 4575 4576 1 
1718 5097 5098 1 
1719 5097 5593 2 
1720 4823 4824 1 
1721 5077 5078 1 
1722 5593 5594 1 
1723 5349 5350 1 
1724 5094 5093 1 
1725 5102 5094 3 
1726 5359 5360 1 
1727 5339 5340 1 
1728 5339 5589 2 
1729 5089 5090 1 
1730 5589 5590 1 
1731 5325 5326 1 
1732 5357 5358 1 
1733 6107 6108 1 
1734 5583 5584 1 
1735 5609 5610 1 
1736 5827 5828 1 
1737 331 332 1 
1738 341 342 1 
1739 93 94 1 
1740 586 585 1 
1741 90 116 3 
1742 116 115 1 
1743 832 586 3 
1744 6118 6117 1 
1745 344 592 3 
1746 344 343 1 
1747 6105 6106 1 
1748 845 846 1 
1749 350 344 3 
1750 350 349 1 
1751 1581 1582 1 
1752 1115 1116 1 
1753 1588 1587 1 
1754 1326 1588 3 