ITEM: TIMESTEP
28160
ITEM: NUMBER OF ENTRIES
5928
ITEM: BOX BOUNDS pp pp ff
0.0000000000000000e+00 7.2168784000000002e+01
0.0000000000000000e+00 7.2168784000000002e+01
0.0000000000000000e+00 1.2000000000000000e+01
ITEM: ENTRIES index c_1[1] c_1[2] c_1[3]
1 487 488 1 
2 6017 6018 1 
3 6018 6014 3 
4 6014 6013 1 
5 6025 6026 1 
6 753 754 1 
7 473 474 1 
8 485 1239 2 
9 1239 1240 1 
10 269 270 1 
11 233 269 2 
12 1240 6 3 
13 6 5 1 
14 1280 1786 3 
15 1280 1279 1 
16 1786 1008 3 
17 1786 1785 1 
18 1508 1280 3 
19 1508 1507 1 
20 1508 1786 3 
21 1008 1280 3 
22 1008 1007 1 
23 1008 1508 3 
24 1537 1538 1 
25 1501 1502 1 
26 1501 1537 2 
27 1525 1526 1 
28 1525 1765 2 
29 1765 1766 1 
30 1724 1748 3 
31 1748 1747 1 
32 2496 2536 3 
33 2536 2535 1 
34 1504 2252 3 
35 1504 1503 1 
36 2762 1504 3 
37 2762 2761 1 
38 2252 2732 3 
39 2252 2251 1 
40 2252 2762 3 
41 2740 2739 1 
42 2732 1504 3 
43 2732 2731 1 
44 2732 2762 3 
45 2504 2740 3 
46 2992 2778 3 
47 2992 2991 1 
48 2992 3002 3 
49 3002 2778 3 
50 3002 3001 1 
51 3002 3006 3 
52 3256 3255 1 
53 3006 2992 3 
54 3006 3005 1 
55 2962 3256 3 
56 2778 3006 3 
57 2778 2777 1 
58 3510 3010 3 
59 3510 3509 1 
60 3986 3510 3 
61 3986 3985 1 
62 3010 3986 3 
63 3010 3009 1 
64 3512 3526 3 
65 3526 3525 1 
66 3503 3504 1 
67 4022 4021 1 
68 3281 3282 1 
69 3771 3772 1 
70 3771 4723 2 
71 4276 4048 3 
72 4276 4275 1 
73 4048 4500 3 
74 4048 4047 1 
75 5525 5526 1 
76 5256 5255 1 
77 5742 5256 3 
78 6231 6232 1 
79 5754 5753 1 
80 5518 5754 3 
81 6224 250 3 
82 6224 6223 1 
83 9 10 1 
84 29 251 2 
85 5765 6013 2 
86 251 252 1 
87 271 272 1 
88 6022 248 3 
89 6022 6021 1 
90 248 12 3 
91 248 247 1 
92 12 34 3 
93 12 11 1 
94 12 6022 3 
95 34 248 3 
96 34 33 1 
97 34 6022 3 
98 23 24 1 
99 33 501 2 
100 501 502 1 
101 25 26 1 
102 1042 778 3 
103 778 777 1 
104 535 1021 2 
105 1021 1022 1 
106 536 1020 3 
107 536 535 1 
108 1002 536 3 
109 1002 1001 1 
110 1020 1002 3 
111 1020 1019 1 
112 760 1054 3 
113 760 759 1 
114 1018 1040 3 
115 1018 1017 1 
116 1018 1534 3 
117 1041 1042 1 
118 2531 2731 2 
119 3290 2784 3 
120 3495 3496 1 
121 2784 2783 1 
122 3272 3034 3 
123 3272 3271 1 
124 3272 3538 3 
125 3303 3304 1 
126 3015 3525 2 
127 3778 3777 1 
128 4264 5036 3 
129 4264 4263 1 
130 4264 4534 3 
131 5036 4282 3 
132 5036 5035 1 
133 4282 4264 3 
134 4282 4281 1 
135 4282 4534 3 
136 4534 5036 3 
137 4534 4533 1 
138 4754 4746 3 
139 4754 4753 1 
140 4746 5002 3 
141 4746 4745 1 
142 5002 4754 3 
143 5002 5001 1 
144 5289 5290 1 
145 6233 6234 1 
146 6011 6012 1 
147 6029 6030 1 
148 6036 6035 1 
149 542 541 1 
150 524 6036 3 
151 767 768 1 
152 767 1043 2 
153 296 295 1 
154 1044 1048 3 
155 1044 1043 1 
156 540 1044 3 
157 540 539 1 
158 1528 2062 3 
159 1528 1527 1 
160 1528 1802 3 
161 2062 1284 3 
162 2062 2061 1 
163 1283 1521 2 
164 1521 1522 1 
165 2313 2775 2 
166 2313 2314 1 
167 2286 2285 1 
168 2540 2286 3 
169 2539 2540 1 
170 3034 3264 3 
171 3034 3033 1 
172 3264 3538 3 
173 3264 3263 1 
174 3264 3272 3 
175 3538 3034 3 
176 3538 3537 1 
177 3289 3290 1 
178 2781 3289 2 
179 3263 3535 2 
180 3790 3534 3 
181 3790 3789 1 
182 3534 3316 3 
183 3534 3533 1 
184 3316 2524 3 
185 3316 3315 1 
186 3316 3790 3 
187 2524 3534 3 
188 2524 2523 1 
189 2524 3790 3 
190 2783 3269 2 
191 3269 3270 1 
192 3798 3812 3 
193 3798 3797 1 
194 3540 4524 3 
195 4524 4523 1 
196 5539 5540 1 
197 6030 542 3 
198 523 524 1 
199 1048 540 3 
200 1048 1047 1 
201 815 816 1 
202 47 48 1 
203 47 517 2 
204 295 815 2 
205 517 518 1 
206 1291 1292 1 
207 1792 2308 3 
208 1792 1791 1 
209 1771 1772 1 
210 1542 1792 3 
211 1542 1541 1 
212 1542 2308 3 
213 1772 1282 3 
214 1282 1281 1 
215 1515 1516 1 
216 2025 2026 1 
217 2025 2807 2 
218 2295 2296 1 
219 2776 2044 3 
220 2776 2775 1 
221 2564 2776 3 
222 2564 2563 1 
223 2044 2564 3 
224 2044 2043 1 
225 1796 2564 3 
226 1796 1795 1 
227 1796 2776 3 
228 1796 2044 3 
229 2563 2817 2 
230 3041 3042 1 
231 2817 2818 1 
232 3310 3292 3 
233 3292 3291 1 
234 3284 3048 3 
235 3284 3283 1 
236 4051 4052 1 
237 3776 3775 1 
238 4302 5292 3 
239 5292 5291 1 
240 4315 4316 1 
241 5048 5792 3 
242 5048 5047 1 
243 5814 5302 3 
244 5302 5301 1 
245 5813 5814 1 
246 255 256 1 
247 322 6044 3 
248 322 321 1 
249 6044 538 3 
250 6044 6043 1 
251 538 322 3 
252 538 537 1 
253 798 797 1 
254 314 798 3 
255 545 553 2 
256 796 800 3 
257 796 795 1 
258 1290 1792 3 
259 1290 1289 1 
260 1290 1542 3 
261 2542 1554 3 
262 2542 2541 1 
263 2308 1290 3 
264 2308 2307 1 
265 1302 1301 1 
266 1333 2307 2 
267 1572 1302 3 
268 1281 1541 2 
269 2054 1334 3 
270 1797 2021 2 
271 1571 1572 1 
272 1571 1781 2 
273 1781 1782 1 
274 1334 1333 1 
275 2053 2054 1 
276 1795 2053 2 
277 2292 1824 3 
278 2292 2291 1 
279 2022 1824 3 
280 2022 2021 1 
281 2022 2292 3 
282 1824 1800 3 
283 1824 1823 1 
284 1800 2292 3 
285 1800 1799 1 
286 1800 2022 3 
287 2801 2802 1 
288 1799 2069 2 
289 2035 2036 1 
290 3332 3776 3 
291 3331 3332 1 
292 3331 3567 2 
293 3567 3568 1 
294 4301 4302 1 
295 4305 4306 1 
296 4053 4305 2 
297 4767 4768 1 
298 4767 4783 2 
299 4783 4784 1 
300 5566 5048 3 
301 5566 5565 1 
302 5792 5566 3 
303 5792 5791 1 
304 4804 5296 3 
305 5296 5295 1 
306 4803 4804 1 
307 4813 5565 2 
308 64 63 1 
309 6062 64 3 
310 6061 6062 1 
311 5552 5542 3 
312 5552 5551 1 
313 6064 294 3 
314 6064 6063 1 
315 69 70 1 
316 69 589 2 
317 313 314 1 
318 313 559 2 
319 335 336 1 
320 71 72 1 
321 1570 1554 3 
322 1570 1569 1 
323 1570 2542 3 
324 1532 1570 3 
325 1532 1531 1 
326 1532 2542 3 
327 1073 1339 2 
328 1339 1340 1 
329 1562 1798 3 
330 1798 1797 1 
331 1821 1822 1 
332 3051 3052 1 
333 3793 3794 1 
334 3814 3564 3 
335 3814 3813 1 
336 3068 3564 3 
337 3068 3067 1 
338 3068 3814 3 
339 3298 3068 3 
340 3298 3297 1 
341 3298 3814 3 
342 3564 3298 3 
343 3564 3563 1 
344 3305 3581 2 
345 3558 4066 3 
346 3558 3557 1 
347 3558 3574 3 
348 3574 4066 3 
349 3574 3573 1 
350 3306 3558 3 
351 3306 3305 1 
352 3306 3574 3 
353 4587 4588 1 
354 3802 3801 1 
355 4074 3802 3 
356 4310 4309 1 
357 4318 4326 3 
358 4318 4317 1 
359 4291 4292 1 
360 4291 4587 2 
361 4063 4064 1 
362 4073 4074 1 
363 4535 4536 1 
364 74 5816 3 
365 6049 6050 1 
366 6083 6084 1 
367 5819 6083 2 
368 5801 5802 1 
369 5820 5552 3 
370 5820 5819 1 
371 353 354 1 
372 353 5541 2 
373 5542 5820 3 
374 5542 5541 1 
375 5821 5822 1 
376 822 821 1 
377 819 820 1 
378 336 822 3 
379 1071 1072 1 
380 1077 1078 1 
381 1077 1367 2 
382 828 1832 3 
383 828 827 1 
384 1074 828 3 
385 1074 1073 1 
386 1832 1074 3 
387 1832 1831 1 
388 1561 1562 1 
389 1793 1794 1 
390 2319 2320 1 
391 2823 2824 1 
392 2045 2046 1 
393 2557 2558 1 
394 2567 2568 1 
395 2323 2324 1 
396 2323 2557 2 
397 3297 3619 2 
398 3619 3620 1 
399 3322 3582 3 
400 3322 3321 1 
401 3582 4312 3 
402 3582 3581 1 
403 4312 3322 3 
404 4312 4311 1 
405 3062 3582 3 
406 3062 3061 1 
407 3062 4312 3 
408 3062 3322 3 
409 3607 3608 1 
410 3607 3813 2 
411 3595 3596 1 
412 3595 4107 2 
413 3586 3072 3 
414 3586 3585 1 
415 4545 4546 1 
416 3591 3592 1 
417 3572 4072 3 
418 3572 3571 1 
419 3572 3816 3 
420 4322 3572 3 
421 4322 4321 1 
422 3816 4072 3 
423 3816 3815 1 
424 3816 4322 3 
425 4072 4322 3 
426 4072 4071 1 
427 4297 4298 1 
428 4577 4578 1 
429 5573 5574 1 
430 5051 5052 1 
431 5051 5573 2 
432 4823 4824 1 
433 5327 5328 1 
434 73 74 1 
435 5315 5316 1 
436 6104 92 3 
437 92 91 1 
438 5812 5811 1 
439 5563 5564 1 
440 5563 5811 2 
441 5829 5830 1 
442 5577 5578 1 
443 5577 5829 2 
444 103 104 1 
445 6057 6058 1 
446 315 316 1 
447 315 6057 2 
448 843 844 1 
449 1367 1368 1 
450 1341 1342 1 
451 1341 1831 2 
452 833 834 1 
453 1596 1595 1 
454 1368 1596 3 
455 847 848 1 
456 847 2077 2 
457 2082 2081 1 
458 2816 2082 3 
459 2815 2816 1 
460 2581 2582 1 
461 2845 2846 1 
462 2845 2863 2 
463 2832 2560 3 
464 2560 2559 1 
465 4108 4107 1 
466 3620 4108 3 
467 3111 3112 1 
468 3561 3562 1 
469 3091 3335 2 
470 4853 4854 1 
471 4321 4351 2 
472 4604 4603 1 
473 5346 4604 3 
474 5345 5346 1 
475 5079 5345 2 
476 5079 5080 1 
477 4352 5308 3 
478 4352 4351 1 
479 5065 5066 1 
480 4835 5065 2 
481 5098 5078 3 
482 5098 5097 1 
483 4836 5098 3 
484 4836 4835 1 
485 5078 4836 3 
486 5078 5077 1 
487 5561 5562 1 
488 5102 5094 3 
489 5089 5090 1 
490 6103 6104 1 
491 586 585 1 
492 832 586 3 
493 596 1092 3 
494 1092 1091 1 
495 595 596 1 
496 595 1107 2 
497 1091 1103 2 
498 1595 2099 2 
499 2099 2100 1 
500 1351 1352 1 
501 2081 2089 2 
502 2063 2064 1 
503 2864 2894 3 
504 2864 2863 1 
505 2894 2342 3 
506 2894 2893 1 
507 2342 2864 3 
508 2342 2341 1 
509 2342 2364 3 
510 2364 2864 3 
511 2364 2363 1 
512 2364 2894 3 
513 2611 2612 1 
514 2611 3083 2 
515 3341 3342 1 
516 3337 3338 1 
517 4337 4338 1 
518 3611 3837 2 
519 3837 3838 1 
520 3833 3834 1 
521 3833 4571 2 
522 3851 3852 1 
523 4355 4603 2 
524 4323 4324 1 
525 4591 4592 1 
526 5080 4876 3 
527 4876 4875 1 
528 5094 5093 1 
529 5115 5116 1 
530 371 372 1 
531 5347 5348 1 
532 343 831 2 
533 831 832 1 
534 115 857 2 
535 5597 5598 1 
536 591 875 2 
537 876 1350 3 
538 876 875 1 
539 1350 858 3 
540 1350 1349 1 
541 858 876 3 
542 858 857 1 
543 1356 1106 3 
544 1106 1105 1 
545 1359 1360 1 
546 634 1614 3 
547 1614 1613 1 
548 633 634 1 
549 1583 1603 2 
550 1603 1604 1 
551 1853 1854 1 
552 2128 2136 3 
553 2128 2127 1 
554 1618 2128 3 
555 1618 1617 1 
556 1618 2092 3 
557 1618 2136 3 
558 2092 2128 3 
559 2092 2091 1 
560 2136 2092 3 
561 2136 2135 1 
562 3339 3340 1 
563 2825 3339 2 
564 2351 2352 1 
565 2351 2357 2 
566 2101 2102 1 
567 2101 2893 2 
568 2826 2862 3 
569 2826 2825 1 
570 2335 2336 1 
571 3884 3883 1 
572 3124 3884 3 
573 3371 3372 1 
574 2583 2584 1 
575 3123 3124 1 
576 3594 3593 1 
577 3366 3594 3 
578 3873 3874 1 
579 3873 4363 2 
580 3841 3842 1 
581 4105 4106 1 
582 4105 4609 2 
583 4609 4610 1 
584 4084 4364 3 
585 4569 4575 2 
586 4592 5354 3 
587 5354 5353 1 
588 4593 4594 1 
589 4873 5353 2 
590 5881 6109 2 
591 6109 6110 1 
592 362 5864 3 
593 5864 5863 1 
594 121 122 1 
595 121 123 2 
596 653 1147 2 
597 1134 1136 3 
598 880 1118 3 
599 1118 1117 1 
600 2638 2637 1 
601 1866 2638 3 
602 1835 2115 2 
603 2115 2116 1 
604 1642 1641 1 
605 2362 1642 3 
606 2131 2132 1 
607 2131 2135 2 
608 1641 2395 2 
609 2371 2372 1 
610 2361 2362 1 
611 3099 3100 1 
612 3624 3623 1 
613 3910 3909 1 
614 3372 3910 3 
615 3898 2866 3 
616 2866 2865 1 
617 3862 3624 3 
618 3144 3376 3 
619 3144 3143 1 
620 4146 3144 3 
621 4146 4145 1 
622 3376 4146 3 
623 3376 3375 1 
624 5134 4846 3 
625 5134 5133 1 
626 4874 4586 3 
627 4874 4873 1 
628 4874 5134 3 
629 4846 4874 3 
630 4846 4845 1 
631 114 113 1 
632 6110 114 3 
633 5871 5872 1 
634 5598 5858 3 
635 5858 5857 1 
636 6121 6122 1 
637 142 141 1 
638 1380 142 3 
639 627 628 1 
640 613 614 1 
641 628 1148 3 
642 139 140 1 
643 1133 1134 1 
644 1148 1147 1 
645 1375 1376 1 
646 1385 1881 2 
647 1391 1392 1 
648 2647 2648 1 
649 2887 2888 1 
650 3179 3180 1 
651 2625 2647 2 
652 2877 3897 2 
653 3897 3898 1 
654 2878 2877 1 
655 3136 2878 3 
656 3135 3909 2 
657 3135 3136 1 
658 3143 3641 2 
659 2865 3901 2 
660 3924 3642 3 
661 3924 3923 1 
662 3618 3642 3 
663 3618 3617 1 
664 3618 3924 3 
665 3642 3902 3 
666 3642 3641 1 
667 4628 4646 3 
668 4628 4627 1 
669 4884 4644 3 
670 4884 4883 1 
671 5362 5361 1 
672 5878 5362 3 
673 5915 5916 1 
674 153 154 1 
675 5883 5884 1 
676 383 1399 2 
677 413 414 1 
678 413 1429 2 
679 1429 1430 1 
680 1143 1144 1 
681 1653 1654 1 
682 1659 1660 1 
683 940 2130 3 
684 940 939 1 
685 2130 1644 3 
686 2130 2129 1 
687 1644 940 3 
688 1644 1643 1 
689 2147 2148 1 
690 1882 2174 3 
691 1882 1881 1 
692 1882 2374 3 
693 1882 2152 3 
694 2152 2374 3 
695 2152 2151 1 
696 2174 2152 3 
697 2174 2173 1 
698 2374 2174 3 
699 2374 2373 1 
700 2402 2872 3 
701 2648 2662 3 
702 2662 2661 1 
703 2872 2871 1 
704 4634 4633 1 
705 3915 3916 1 
706 3613 4633 2 
707 3389 3390 1 
708 4660 4659 1 
709 3621 4421 2 
710 4421 4422 1 
711 3891 3892 1 
712 3614 3613 1 
713 4116 3614 3 
714 4155 4156 1 
715 4155 4643 2 
716 5167 5168 1 
717 6151 6152 1 
718 902 384 3 
719 902 901 1 
720 6148 416 3 
721 6148 6147 1 
722 641 642 1 
723 132 902 3 
724 132 131 1 
725 416 144 3 
726 416 415 1 
727 384 132 3 
728 384 383 1 
729 144 6148 3 
730 144 143 1 
731 1163 1164 1 
732 1415 1416 1 
733 2661 2667 2 
734 2871 2907 2 
735 1924 2412 3 
736 1924 1923 1 
737 2907 2908 1 
738 3682 3681 1 
739 3632 3682 3 
740 2889 2890 1 
741 2889 3681 2 
742 3880 3879 1 
743 3916 3678 3 
744 4412 4411 1 
745 3390 4412 3 
746 5679 5680 1 
747 4877 4931 2 
748 4196 4195 1 
749 5680 5152 3 
750 4922 4196 3 
751 4922 4948 3 
752 5152 5151 1 
753 4910 4922 3 
754 5447 5448 1 
755 5663 5664 1 
756 5185 5447 2 
757 5925 5926 1 
758 5412 378 3 
759 5412 5411 1 
760 5412 6156 3 
761 6153 6154 1 
762 5411 6153 2 
763 946 945 1 
764 415 421 2 
765 448 946 3 
766 1431 1432 1 
767 932 426 3 
768 931 932 1 
769 1183 1184 1 
770 2465 2466 1 
771 1672 2184 3 
772 1672 1671 1 
773 1672 2916 3 
774 2414 1672 3 
775 2414 2413 1 
776 2184 2414 3 
777 2184 2183 1 
778 2184 2916 3 
779 2412 2936 3 
780 2412 2411 1 
781 2936 1924 3 
782 2936 2935 1 
783 2691 2692 1 
784 2934 3174 3 
785 2934 2933 1 
786 3174 2656 3 
787 3174 3173 1 
788 2663 2664 1 
789 2663 2683 2 
790 2656 2934 3 
791 2656 2655 1 
792 2657 2658 1 
793 3631 3679 2 
794 3631 3632 1 
795 2655 3151 2 
796 3378 4134 3 
797 3377 3378 1 
798 3913 4427 2 
799 4134 4133 1 
800 4674 4168 3 
801 4674 4673 1 
802 4428 4674 3 
803 4428 4427 1 
804 4428 4430 3 
805 4430 4168 3 
806 4430 4429 1 
807 4430 4674 3 
808 4400 4878 3 
809 4878 4877 1 
810 4920 4418 3 
811 4920 4919 1 
812 4920 5428 3 
813 4920 5402 3 
814 5402 5428 3 
815 5402 5401 1 
816 4418 5402 3 
817 4418 4417 1 
818 5428 4418 3 
819 5428 5427 1 
820 5174 5446 3 
821 5174 5173 1 
822 5893 5894 1 
823 4680 4866 3 
824 4680 4679 1 
825 5446 5186 3 
826 5446 5445 1 
827 4866 5164 3 
828 4866 4865 1 
829 4625 4626 1 
830 4919 5423 2 
831 5186 5174 3 
832 5186 5185 1 
833 403 404 1 
834 171 172 1 
835 170 169 1 
836 190 170 3 
837 914 674 3 
838 674 673 1 
839 426 425 1 
840 936 682 3 
841 936 935 1 
842 682 672 3 
843 682 681 1 
844 682 710 3 
845 710 936 3 
846 710 709 1 
847 673 951 2 
848 655 656 1 
849 672 936 3 
850 672 671 1 
851 672 710 3 
852 1155 1913 2 
853 1155 1156 1 
854 1913 1914 1 
855 1681 1682 1 
856 1926 1925 1 
857 2466 1926 3 
858 1921 1922 1 
859 2185 2186 1 
860 2185 2193 2 
861 2916 2414 3 
862 2916 2915 1 
863 1922 1894 3 
864 1894 1893 1 
865 2403 2404 1 
866 2902 2684 3 
867 2684 2683 1 
868 3435 3436 1 
869 3927 3928 1 
870 4443 4444 1 
871 4168 4428 3 
872 4168 4167 1 
873 4401 4402 1 
874 4912 4700 3 
875 4700 4699 1 
876 4699 5173 2 
877 4911 4912 1 
878 4399 4400 1 
879 5177 5178 1 
880 5177 5445 2 
881 5413 5659 2 
882 5671 5672 1 
883 6217 6218 1 
884 5444 5660 3 
885 5444 5443 1 
886 6218 424 3 
887 424 423 1 
888 429 430 1 
889 205 429 2 
890 943 944 1 
891 445 943 2 
892 6182 5928 3 
893 5928 5927 1 
894 216 472 3 
895 451 452 1 
896 472 471 1 
897 913 914 1 
898 405 913 2 
899 460 702 3 
900 460 459 1 
901 460 692 3 
902 952 460 3 
903 952 951 1 
904 692 702 3 
905 692 691 1 
906 692 952 3 
907 702 952 3 
908 702 701 1 
909 701 1173 2 
910 1934 1412 3 
911 1934 1933 1 
912 1192 1934 3 
913 1192 1191 1 
914 1412 1192 3 
915 1412 1411 1 
916 1703 1704 1 
917 2444 2950 3 
918 2444 2443 1 
919 2437 2438 1 
920 2431 2432 1 
921 2431 2437 2 
922 3202 2924 3 
923 2924 2923 1 
924 3711 3712 1 
925 3421 3422 1 
926 3421 3711 2 
927 3945 4671 2 
928 3702 3701 1 
929 3661 3927 2 
930 4672 4671 1 
931 4961 4962 1 
932 4423 4424 1 
933 4423 4961 2 
934 5936 5935 1 
935 5674 5936 3 
936 4945 4946 1 
937 4683 4945 2 
938 5918 5917 1 
939 6184 5918 3 
940 423 5933 2 
941 5206 5964 3 
942 5206 5205 1 
943 6174 5206 3 
944 6174 6173 1 
945 5964 6174 3 
946 5964 5963 1 
947 221 222 1 
948 406 405 1 
949 6196 406 3 
950 471 661 2 
951 6195 6196 1 
952 177 1189 2 
953 178 177 1 
954 183 691 2 
955 699 700 1 
956 699 1215 2 
957 1215 1216 1 
958 1725 1726 1 
959 1964 1720 3 
960 1964 1963 1 
961 1942 1964 3 
962 1942 1941 1 
963 1720 1719 1 
964 1943 1944 1 
965 2205 2206 1 
966 2195 2196 1 
967 2195 2207 2 
968 3456 3455 1 
969 3222 3456 3 
970 3422 3702 3 
971 3701 3975 2 
972 3975 3976 1 
973 4435 4436 1 
974 4220 4672 3 
975 3961 3962 1 
976 3961 4435 2 
977 4694 4212 3 
978 4694 4693 1 
979 3686 4694 3 
980 3686 3685 1 
981 4199 4200 1 
982 4199 4933 2 
983 4987 4988 1 
984 4215 4437 2 
985 4212 3686 3 
986 4212 4211 1 
987 4684 4216 3 
988 4684 4683 1 
989 4216 4162 3 
990 4216 4215 1 
991 4162 4684 3 
992 4162 4161 1 
993 5451 5452 1 
994 5224 5223 1 
995 5457 5458 1 
996 5458 5224 3 
997 4209 5451 2 
998 5209 5210 1 
999 6222 6221 1 
1000 204 5932 3 
1001 204 203 1 
1002 204 5934 3 
1003 5934 5966 3 
1004 5934 5933 1 
1005 5932 5966 3 
1006 5932 5931 1 
1007 5932 5934 3 
1008 6183 6184 1 
1009 5966 204 3 
1010 5966 5965 1 
1011 194 193 1 
1012 196 194 3 
1013 6163 6164 1 
1014 5967 6173 2 
1015 209 210 1 
1016 209 729 2 
1017 222 178 3 
1018 752 456 3 
1019 752 751 1 
1020 456 218 3 
1021 456 455 1 
1022 184 183 1 
1023 700 1444 3 
1024 1444 1443 1 
1025 1211 1212 1 
1026 1211 1221 2 
1027 1497 1498 1 
1028 997 1451 2 
1029 1451 1452 1 
1030 1204 1684 3 
1031 1204 1203 1 
1032 998 997 1 
1033 1452 998 3 
1034 2211 2461 2 
1035 1999 2000 1 
1036 1999 2973 2 
1037 2973 2974 1 
1038 2701 2702 1 
1039 2701 3443 2 
1040 3443 3444 1 
1041 2719 3231 2 
1042 3221 3222 1 
1043 2713 2714 1 
1044 3232 3964 3 
1045 3232 3231 1 
1046 3192 3232 3 
1047 3192 3191 1 
1048 3964 3192 3 
1049 3964 3963 1 
1050 4472 4471 1 
1051 3994 4472 3 
1052 4707 4708 1 
1053 4471 4963 2 
1054 4437 4438 1 
1055 4963 4964 1 
1056 4935 4936 1 
1057 4717 4718 1 
1058 4161 5199 2 
1059 203 5207 2 
1060 5207 5208 1 
1061 5463 5464 1 
1062 5463 5937 2 
1063 5937 5938 1 
1064 5723 5724 1 
1065 465 466 1 
1066 5724 5714 3 
1067 8 7 1 
1068 264 8 3 
1069 218 752 3 
1070 218 217 1 
1071 1476 1488 3 
1072 725 726 1 
1073 1219 1497 2 
1074 1718 2240 3 
1075 2240 2239 1 
1076 1994 2240 3 
1077 1498 1994 3 
1078 1498 2240 3 
1079 1716 1204 3 
1080 1716 1715 1 
1081 1482 1978 3 
1082 1482 1481 1 
1083 1978 1956 3 
1084 1978 1977 1 
1085 2224 2972 3 
1086 2224 2223 1 
1087 2972 2242 3 
1088 2972 2971 1 
1089 2242 2224 3 
1090 2242 2241 1 
1091 2231 2232 1 
1092 2231 3233 2 
1093 3233 3234 1 
1094 2734 2720 3 
1095 2720 2719 1 
1096 3225 3226 1 
1097 3225 3963 2 
1098 3749 3750 1 
1099 4203 4205 2 
1100 4970 4480 3 
1101 4970 4969 1 
1102 4480 4260 3 
1103 4480 4479 1 
1104 4260 4970 3 
1105 4260 4259 1 
1106 4205 4206 1 
1107 4259 4721 2 
1108 5995 5996 1 
1109 5714 5713 1 
1110 5713 6005 2 
1111 231 232 1 
1112 231 5973 2 
1113 5973 5974 1 
1114 225 226 1 
1115 1004 750 3 
1116 1004 1003 1 
1117 217 1951 2 
1118 1951 1952 1 
1119 1488 1487 1 
1120 505 506 1 
1121 505 743 2 
1122 1475 1476 1 
1123 1247 1475 2 
1124 491 492 1 
1125 1973 1974 1 
1126 1735 1736 1 
1127 1481 2239 2 
1128 2244 2706 3 
1129 2706 2705 1 
1130 2994 3214 3 
1131 2994 2993 1 
1132 2994 3210 3 
1133 3210 2986 3 
1134 3210 3209 1 
1135 3210 3214 3 
1136 2986 2994 3 
1137 2986 2985 1 
1138 3214 2986 3 
1139 3214 3213 1 
1140 2453 2454 1 
1141 2453 3519 2 
1142 4975 4976 1 
1143 3751 3752 1 
1144 4725 4726 1 
1145 4223 4224 1 
1146 5492 5490 3 
1147 5492 5491 1 
1148 5266 5492 3 
1149 5266 5265 1 
1150 5490 5266 3 
1151 5490 5489 1 
1152 1005 1006 1 
1153 234 233 1 
1154 506 234 3 
1155 486 485 1 
1156 1242 486 3 
1157 1014 1256 3 
1158 1256 1255 1 
1159 1991 1992 1 
1160 1477 1991 2 
1161 1741 2243 2 
1162 2243 2244 1 
1163 2495 2496 1 
1164 2251 2489 2 
1165 2489 2490 1 
1166 2503 2504 1 
1167 2503 2739 2 
1168 2247 2248 1 
1169 2993 3217 2 
1170 2497 2498 1 
1171 2997 2998 1 
1172 2983 2984 1 
1173 2983 2997 2 
1174 3965 3966 1 
1175 3494 3493 1 
1176 3758 3494 3 
1177 4011 4012 1 
1178 3491 3492 1 
1179 4275 5525 2 
1180 4521 4522 1 
1181 4521 4761 2 
1182 4724 4723 1 
1183 4758 4724 3 
1184 5018 5266 3 
1185 5018 5017 1 
1186 5018 5492 3 
1187 5018 5490 3 
1188 5489 5789 2 
1189 4522 4280 3 
1190 5239 5240 1 
1191 5017 5239 2 
1192 5472 5734 3 
1193 5472 5471 1 
1194 5734 5748 3 
1195 5734 5733 1 
1196 5748 5472 3 
1197 5748 5747 1 
1198 4997 5729 2 
1199 5735 5736 1 
1200 10 6042 3 
1201 30 6016 3 
1202 30 29 1 
1203 6016 520 3 
1204 6016 6015 1 
1205 6042 6041 1 
1206 754 756 3 
1207 756 755 1 
1208 755 1499 2 
1209 1243 1244 1 
1210 1236 1235 1 
1211 981 982 1 
1212 981 1235 2 
1213 1245 1246 1 
1214 1483 1484 1 
1215 1011 1012 1 
1216 1011 1483 2 
1217 1279 2019 2 
1218 1270 1269 1 
1219 1767 1768 1 
1220 1723 2253 2 
1221 1723 1724 1 
1222 2253 2254 1 
1223 1518 2492 3 
1224 1751 1752 1 
1225 1751 2769 2 
1226 2981 2982 1 
1227 2961 2962 1 
1228 2280 2279 1 
1229 2280 2492 3 
1230 2280 2786 3 
1231 2507 2755 2 
1232 2279 2509 2 
1233 2509 2510 1 
1234 2513 2514 1 
1235 2979 2980 1 
1236 2979 3235 2 
1237 3550 3549 1 
1238 3304 3550 3 
1239 4009 4010 1 
1240 3511 3512 1 
1241 3760 3759 1 
1242 3992 3502 3 
1243 3502 3501 1 
1244 3763 3764 1 
1245 3504 4022 3 
1246 3769 4503 2 
1247 4748 4462 3 
1248 4462 4461 1 
1249 3770 3769 1 
1250 4503 4504 1 
1251 3527 3528 1 
1252 3527 3777 2 
1253 4015 4016 1 
1254 4500 4276 3 
1255 4500 4499 1 
1256 3744 4744 3 
1257 3744 3743 1 
1258 3744 4290 3 
1259 4290 4744 3 
1260 4290 4289 1 
1261 3766 3744 3 
1262 3766 3765 1 
1263 3766 4290 3 
1264 4744 3766 3 
1265 4744 4743 1 
1266 4487 4488 1 
1267 4231 4751 2 
1268 5504 4752 3 
1269 5504 5503 1 
1270 4752 5790 3 
1271 4752 4751 1 
1272 4509 4510 1 
1273 4509 4727 2 
1274 5790 5504 3 
1275 5790 5789 1 
1276 4727 4728 1 
1277 4993 4994 1 
1278 4780 4262 3 
1279 4780 4779 1 
1280 4516 4780 3 
1281 4516 4515 1 
1282 4262 4516 3 
1283 4262 4261 1 
1284 4729 4993 2 
1285 4776 5530 3 
1286 5743 5744 1 
1287 5014 5502 3 
1288 5276 5758 3 
1289 5276 5275 1 
1290 5758 5020 3 
1291 5758 5757 1 
1292 5530 5529 1 
1293 5013 5014 1 
1294 5020 5276 3 
1295 5020 5019 1 
1296 4755 5501 2 
1297 5751 5752 1 
1298 5505 5506 1 
1299 5499 5500 1 
1300 5499 5505 2 
1301 27 28 1 
1302 5741 5742 1 
1303 250 6008 3 
1304 250 249 1 
1305 5981 6007 2 
1306 6001 6002 1 
1307 6001 6009 2 
1308 15 499 2 
1309 5517 5518 1 
1310 6008 6224 3 
1311 6008 6007 1 
1312 6241 6242 1 
1313 257 6241 2 
1314 257 258 1 
1315 520 30 3 
1316 520 519 1 
1317 5766 5765 1 
1318 5766 6242 3 
1319 274 273 1 
1320 274 6010 3 
1321 529 530 1 
1322 525 526 1 
1323 515 516 1 
1324 763 764 1 
1325 526 522 3 
1326 526 1022 3 
1327 502 1022 3 
1328 270 522 3 
1329 270 768 3 
1330 270 526 3 
1331 768 1022 3 
1332 522 521 1 
1333 522 768 3 
1334 516 284 3 
1335 284 283 1 
1336 285 1275 2 
1337 787 788 1 
1338 787 1029 2 
1339 782 1276 3 
1340 782 781 1 
1341 781 1523 2 
1342 1032 1038 3 
1343 1032 1031 1 
1344 1276 1030 3 
1345 1276 1275 1 
1346 747 748 1 
1347 1308 760 3 
1348 1308 1307 1 
1349 1274 1018 3 
1350 1274 1273 1 
1351 1040 1274 3 
1352 1040 1039 1 
1353 1040 1534 3 
1354 1780 1034 3 
1355 1780 1779 1 
1356 2020 1780 3 
1357 2020 2019 1 
1358 1034 2020 3 
1359 1034 1033 1 
1360 1746 1034 3 
1361 1746 1745 1 
1362 1746 1780 3 
1363 1746 2020 3 
1364 1534 1274 3 
1365 1534 1533 1 
1366 2014 2013 1 
1367 1266 2014 3 
1368 1770 1270 3 
1369 1747 1757 2 
1370 1757 1758 1 
1371 1265 1266 1 
1372 1265 2273 2 
1373 2023 2293 2 
1374 2049 2050 1 
1375 1769 1770 1 
1376 2770 2294 3 
1377 2770 2769 1 
1378 2294 2266 3 
1379 2294 2293 1 
1380 2274 2266 3 
1381 2274 2273 1 
1382 2274 2294 3 
1383 2274 2770 3 
1384 2266 2770 3 
1385 2266 2265 1 
1386 1519 2275 2 
1387 3018 2760 3 
1388 2300 2299 1 
1389 2760 2759 1 
1390 2512 2530 3 
1391 2512 2522 3 
1392 2532 2772 3 
1393 2532 2531 1 
1394 2481 2482 1 
1395 2481 3017 2 
1396 2522 2532 3 
1397 2522 2772 3 
1398 3017 3018 1 
1399 2772 2530 3 
1400 2772 2771 1 
1401 2530 2532 3 
1402 2530 2529 1 
1403 2511 2512 1 
1404 2511 2767 2 
1405 2261 2771 2 
1406 2792 3268 3 
1407 2792 2791 1 
1408 2768 2792 3 
1409 2768 2767 1 
1410 3268 2768 3 
1411 3268 3267 1 
1412 4258 3522 3 
1413 2262 3262 3 
1414 2262 2261 1 
1415 2262 2518 3 
1416 3788 2262 3 
1417 3788 3787 1 
1418 3262 3788 3 
1419 3262 3261 1 
1420 2518 3262 3 
1421 2518 2517 1 
1422 2518 3788 3 
1423 3522 3521 1 
1424 3809 3810 1 
1425 3273 3274 1 
1426 3273 3809 2 
1427 3029 4023 2 
1428 3764 3778 3 
1429 4285 4286 1 
1430 4017 4285 2 
1431 4793 4794 1 
1432 3013 4513 2 
1433 4513 4514 1 
1434 4039 4040 1 
1435 4266 4272 3 
1436 4266 4265 1 
1437 4266 4270 3 
1438 4278 4266 3 
1439 4278 4277 1 
1440 4270 4272 3 
1441 4270 4269 1 
1442 4270 4278 3 
1443 4272 4278 3 
1444 4272 4271 1 
1445 4504 4018 3 
1446 4018 4017 1 
1447 6245 6246 1 
1448 4281 4787 2 
1449 4289 4497 2 
1450 4497 4498 1 
1451 4261 4267 2 
1452 4745 5021 2 
1453 5983 5984 1 
1454 4773 5013 2 
1455 5533 5534 1 
1456 4781 4782 1 
1457 4781 5529 2 
1458 4774 5022 3 
1459 4774 4773 1 
1460 4774 5016 3 
1461 5016 4520 3 
1462 5016 5015 1 
1463 5016 5022 3 
1464 5022 4520 3 
1465 5022 5021 1 
1466 5750 5749 1 
1467 5494 5750 3 
1468 6031 6032 1 
1469 247 5753 2 
1470 6242 6010 3 
1471 6010 6009 1 
1472 6010 5766 3 
1473 22 512 3 
1474 22 274 3 
1475 22 6242 3 
1476 512 511 1 
1477 512 274 3 
1478 512 5766 3 
1479 5771 5772 1 
1480 5515 5516 1 
1481 5003 5515 2 
1482 6023 6037 2 
1483 6037 6038 1 
1484 273 541 2 
1485 21 22 1 
1486 21 511 2 
1487 6051 6052 1 
1488 1015 1016 1 
1489 258 38 3 
1490 38 37 1 
1491 514 513 1 
1492 788 514 3 
1493 785 786 1 
1494 1016 550 3 
1495 550 549 1 
1496 276 776 3 
1497 518 296 3 
1498 521 1067 2 
1499 1067 1068 1 
1500 793 794 1 
1501 776 775 1 
1502 281 282 1 
1503 772 1032 3 
1504 772 771 1 
1505 1030 782 3 
1506 1030 1029 1 
1507 1038 772 3 
1508 1038 1037 1 
1509 1054 1308 3 
1510 1054 1053 1 
1511 1284 1528 3 
1512 1284 1283 1 
1513 1284 1802 3 
1514 1802 2062 3 
1515 1802 1801 1 
1516 1278 1268 3 
1517 1278 1277 1 
1518 1278 1760 3 
1519 1278 1536 3 
1520 771 1533 2 
1521 1536 1268 3 
1522 1536 1535 1 
1523 1760 1536 3 
1524 1760 1759 1 
1525 1268 1760 3 
1526 1268 1267 1 
1527 1261 1557 2 
1528 1055 1056 1 
1529 1777 1778 1 
1530 1267 1549 2 
1531 1743 1744 1 
1532 1511 1512 1 
1533 1511 1743 2 
1534 1776 1775 1 
1535 2024 2023 1 
1536 1744 2024 3 
1537 2283 2284 1 
1538 2533 2534 1 
1539 2289 2290 1 
1540 2297 2298 1 
1541 1773 1774 1 
1542 1773 2297 2 
1543 1520 1519 1 
1544 2314 1520 3 
1545 2763 2764 1 
1546 2271 2272 1 
1547 2271 2763 2 
1548 2759 3251 2 
1549 2040 1544 3 
1550 2040 2039 1 
1551 3020 2798 3 
1552 3020 3019 1 
1553 3020 3546 3 
1554 3020 3026 3 
1555 2798 3546 3 
1556 2798 2797 1 
1557 3026 2798 3 
1558 3026 3025 1 
1559 3546 3026 3 
1560 3546 3545 1 
1561 2281 2529 2 
1562 2571 2572 1 
1563 2519 2520 1 
1564 2521 2522 1 
1565 2521 3515 2 
1566 3515 3516 1 
1567 3261 3545 2 
1568 3033 4061 2 
1569 3288 3287 1 
1570 3496 3022 3 
1571 3022 3021 1 
1572 3257 3258 1 
1573 4024 4023 1 
1574 3270 4024 3 
1575 3311 3312 1 
1576 3311 3547 2 
1577 4046 4028 3 
1578 4046 4045 1 
1579 4028 3544 3 
1580 4028 4027 1 
1581 3544 4046 3 
1582 3544 3543 1 
1583 3014 3544 3 
1584 3014 3013 1 
1585 3014 4028 3 
1586 3014 4046 3 
1587 3745 4025 2 
1588 4025 4026 1 
1589 3016 3798 3 
1590 3016 3015 1 
1591 3812 3016 3 
1592 3812 3811 1 
1593 4040 3320 3 
1594 3320 3319 1 
1595 3783 3784 1 
1596 3539 3540 1 
1597 4518 4772 3 
1598 4518 4517 1 
1599 5024 4518 3 
1600 5024 5023 1 
1601 4772 5024 3 
1602 4772 4771 1 
1603 4273 4274 1 
1604 4273 5297 2 
1605 4763 5023 2 
1606 4246 4526 3 
1607 4246 4245 1 
1608 4526 4788 3 
1609 4526 4525 1 
1610 4788 4246 3 
1611 4788 4787 1 
1612 4498 4268 3 
1613 4268 4267 1 
1614 4550 4764 3 
1615 4550 4549 1 
1616 4550 4556 3 
1617 4532 4550 3 
1618 4532 4531 1 
1619 4532 4556 3 
1620 4556 4764 3 
1621 4556 4555 1 
1622 4519 5031 2 
1623 5039 5535 2 
1624 4296 4294 3 
1625 4294 4293 1 
1626 4753 5533 2 
1627 4520 4774 3 
1628 4520 4519 1 
1629 4295 4296 1 
1630 5001 5263 2 
1631 5823 5824 1 
1632 4759 4760 1 
1633 5775 5823 2 
1634 5283 5284 1 
1635 5277 5278 1 
1636 5277 5283 2 
1637 5545 5546 1 
1638 5033 5034 1 
1639 5313 5545 2 
1640 5761 5762 1 
1641 5987 5988 1 
1642 5261 5987 2 
1643 5762 5004 3 
1644 5004 5003 1 
1645 5532 5531 1 
1646 5320 5532 3 
1647 5767 5768 1 
1648 11 6051 2 
1649 6024 5774 3 
1650 6024 6023 1 
1651 5800 6024 3 
1652 5800 5799 1 
1653 5774 5800 3 
1654 5774 5773 1 
1655 5531 5781 2 
1656 279 280 1 
1657 35 6035 2 
1658 36 35 1 
1659 19 20 1 
1660 19 39 2 
1661 39 40 1 
1662 79 80 1 
1663 79 775 2 
1664 1329 1330 1 
1665 527 549 2 
1666 789 790 1 
1667 557 789 2 
1668 289 1759 2 
1669 761 762 1 
1670 761 1037 2 
1671 319 320 1 
1672 534 533 1 
1673 1512 534 3 
1674 1505 1506 1 
1675 1505 1801 2 
1676 1305 1306 1 
1677 1305 2325 2 
1678 1321 1322 1 
1679 1321 2545 2 
1680 2545 2546 1 
1681 1544 2318 3 
1682 1544 1543 1 
1683 2318 2040 3 
1684 2318 2317 1 
1685 2808 2807 1 
1686 1543 1827 2 
1687 2572 2808 3 
1688 2520 2766 3 
1689 2766 2765 1 
1690 2263 2765 2 
1691 2282 1784 3 
1692 2282 2281 1 
1693 3252 2282 3 
1694 3252 3251 1 
1695 1784 3252 3 
1696 1784 1783 1 
1697 2551 2552 1 
1698 2264 3036 3 
1699 2264 2263 1 
1700 3296 2264 3 
1701 3296 3295 1 
1702 3036 3296 3 
1703 3036 3035 1 
1704 3309 3310 1 
1705 3031 3309 2 
1706 3578 2782 3 
1707 2782 2781 1 
1708 2782 3070 3 
1709 3294 3796 3 
1710 3294 4062 3 
1711 4062 4061 1 
1712 3070 3796 3 
1713 3796 4062 3 
1714 3560 4062 3 
1715 3548 3284 3 
1716 3548 3547 1 
1717 3048 3548 3 
1718 3048 3047 1 
1719 3242 3536 3 
1720 3242 3241 1 
1721 3032 3242 3 
1722 3032 3031 1 
1723 3536 3032 3 
1724 3536 3535 1 
1725 3746 3745 1 
1726 4026 3746 3 
1727 4052 3804 3 
1728 4033 4045 2 
1729 3804 3803 1 
1730 4034 4033 1 
1731 4044 4034 3 
1732 4029 4030 1 
1733 4043 4044 1 
1734 4058 4057 1 
1735 3568 4058 3 
1736 4809 4810 1 
1737 4525 4789 2 
1738 4789 4790 1 
1739 4764 4532 3 
1740 4764 4763 1 
1741 4037 4038 1 
1742 3805 3806 1 
1743 4531 4553 2 
1744 4553 4554 1 
1745 5032 5054 3 
1746 5032 5031 1 
1747 5254 5032 3 
1748 5254 5253 1 