ITEM: TIMESTEP
105600
ITEM: NUMBER OF ENTRIES
8228
ITEM: BOX BOUNDS pp pp ff
0.0000000000000000e+00 7.2168784000000002e+01
0.0000000000000000e+00 7.2168784000000002e+01
0.0000000000000000e+00 1.2000000000000000e+01
ITEM: ENTRIES index c_1[1] c_1[2] c_1[3]
1 248 12 3 
2 248 247 1 
3 6022 248 3 
4 6022 6021 1 
5 34 248 3 
6 34 33 1 
7 34 6022 3 
8 12 34 3 
9 12 11 1 
10 12 6022 3 
11 5732 266 3 
12 266 265 1 
13 244 243 1 
14 6002 244 3 
15 11 6051 2 
16 1245 1246 1 
17 983 1245 2 
18 1744 2024 3 
19 2024 2023 1 
20 3017 3018 1 
21 2481 2482 1 
22 2481 3017 2 
23 3018 2760 3 
24 2760 2759 1 
25 2276 2018 3 
26 2276 2275 1 
27 2508 2276 3 
28 2508 2507 1 
29 2508 2754 3 
30 2018 2508 3 
31 2018 2017 1 
32 2018 2754 3 
33 2754 2276 3 
34 2754 2753 1 
35 2732 1504 3 
36 2732 2731 1 
37 2732 2762 3 
38 2252 2732 3 
39 2252 2251 1 
40 2252 2762 3 
41 1504 2252 3 
42 1504 1503 1 
43 2762 1504 3 
44 2762 2761 1 
45 2518 3262 3 
46 2518 2517 1 
47 2518 3788 3 
48 2511 2512 1 
49 2511 2767 2 
50 3788 2262 3 
51 3788 3787 1 
52 2262 3262 3 
53 2262 2261 1 
54 2262 2518 3 
55 3261 3545 2 
56 2251 2489 2 
57 3262 3788 3 
58 3262 3261 1 
59 3006 2992 3 
60 3006 3005 1 
61 2778 3006 3 
62 2778 2777 1 
63 3012 2490 3 
64 3012 3011 1 
65 2992 2778 3 
66 2992 2991 1 
67 2992 3002 3 
68 3468 2516 3 
69 3468 3467 1 
70 5493 5494 1 
71 529 530 1 
72 5516 6016 3 
73 5516 5515 1 
74 30 6016 3 
75 30 29 1 
76 30 5516 3 
77 285 1275 2 
78 6001 6002 1 
79 6001 6009 2 
80 271 763 2 
81 763 764 1 
82 1259 1269 2 
83 2298 2526 3 
84 2298 2297 1 
85 2298 2774 3 
86 2526 2764 3 
87 2526 2525 1 
88 2525 2785 2 
89 2486 2485 1 
90 2486 2774 3 
91 2002 2486 3 
92 2002 2774 3 
93 1519 2275 2 
94 2759 3251 2 
95 2764 2298 3 
96 2764 2763 1 
97 2531 2731 2 
98 2527 2528 1 
99 2037 2527 2 
100 2512 2530 3 
101 2512 2522 3 
102 2522 2532 3 
103 2522 2772 3 
104 2532 2772 3 
105 2532 2531 1 
106 3496 3022 3 
107 2772 2530 3 
108 2772 2771 1 
109 2302 2512 3 
110 2302 3496 3 
111 2302 3022 3 
112 2777 3787 2 
113 4523 5035 2 
114 4047 4499 2 
115 4048 4500 3 
116 4048 4047 1 
117 4500 4276 3 
118 4500 4499 1 
119 4276 4048 3 
120 4276 4275 1 
121 5549 5550 1 
122 4020 4244 3 
123 4244 4243 1 
124 4493 4735 2 
125 4735 4736 1 
126 5003 5515 2 
127 5033 5799 2 
128 286 272 3 
129 286 285 1 
130 512 511 1 
131 512 274 3 
132 512 5766 3 
133 5766 5765 1 
134 5766 6242 3 
135 19 39 2 
136 19 20 1 
137 22 512 3 
138 22 274 3 
139 22 6242 3 
140 274 273 1 
141 274 6010 3 
142 6010 6009 1 
143 6010 5766 3 
144 6242 6010 3 
145 1036 286 3 
146 1036 1035 1 
147 282 286 3 
148 282 281 1 
149 282 1036 3 
150 792 554 3 
151 792 791 1 
152 792 1068 3 
153 546 792 3 
154 546 545 1 
155 546 1068 3 
156 554 546 3 
157 554 553 1 
158 554 1068 3 
159 5803 5804 1 
160 1032 1038 3 
161 1032 1031 1 
162 761 1037 2 
163 1278 1268 3 
164 1278 1277 1 
165 1278 1760 3 
166 1278 1536 3 
167 1536 1268 3 
168 1536 1535 1 
169 1760 1536 3 
170 1760 1759 1 
171 1268 1760 3 
172 1268 1267 1 
173 1267 1549 2 
174 1773 2297 2 
175 1520 2296 3 
176 1520 1519 1 
177 1520 2818 3 
178 2296 2314 3 
179 2296 2295 1 
180 2818 2296 3 
181 2818 2817 1 
182 2314 1520 3 
183 2314 2313 1 
184 2314 2818 3 
185 2001 2002 1 
186 2001 2485 2 
187 3252 2282 3 
188 3252 3251 1 
189 1784 3252 3 
190 1784 1783 1 
191 2282 1784 3 
192 2282 2281 1 
193 2281 2529 2 
194 4264 5036 3 
195 4264 4263 1 
196 4264 4534 3 
197 3991 3992 1 
198 4534 5036 3 
199 4534 4533 1 
200 4282 4264 3 
201 4282 4281 1 
202 4282 4534 3 
203 3992 3502 3 
204 3502 3501 1 
205 5036 4282 3 
206 5036 5035 1 
207 4019 4020 1 
208 5039 5535 2 
209 4804 5284 3 
210 4804 4803 1 
211 5760 4804 3 
212 5760 5759 1 
213 4765 5537 2 
214 5988 5034 3 
215 5988 5987 1 
216 6050 5988 3 
217 6050 6049 1 
218 5034 6050 3 
219 5034 5033 1 
220 5821 5822 1 
221 21 22 1 
222 21 511 2 
223 798 314 3 
224 798 797 1 
225 70 798 3 
226 70 69 1 
227 70 72 3 
228 273 541 2 
229 1539 1791 2 
230 1290 1792 3 
231 1290 1289 1 
232 1290 1542 3 
233 2308 1290 3 
234 2308 2307 1 
235 1792 2308 3 
236 1792 1791 1 
237 1542 1792 3 
238 1542 1541 1 
239 1542 2308 3 
240 1795 2053 2 
241 1796 2564 3 
242 1796 1795 1 
243 1796 2776 3 
244 1796 2044 3 
245 2564 2776 3 
246 2564 2563 1 
247 1783 3035 2 
248 1515 1516 1 
249 1515 2801 2 
250 2345 2571 2 
251 2802 2801 1 
252 1516 2802 3 
253 3031 3309 2 
254 4554 4553 1 
255 4802 4554 3 
256 4801 4802 1 
257 5332 5294 3 
258 5332 5331 1 
259 5536 5332 3 
260 5536 5535 1 
261 5294 5536 3 
262 5294 5293 1 
263 4014 5536 3 
264 4014 4013 1 
265 4014 5332 3 
266 4014 5294 3 
267 4803 5797 2 
268 5538 6048 3 
269 5538 5537 1 
270 5262 5538 3 
271 5262 5261 1 
272 6048 5262 3 
273 6048 6047 1 
274 5805 6043 2 
275 538 6044 3 
276 538 537 1 
277 322 538 3 
278 322 321 1 
279 322 784 3 
280 784 538 3 
281 784 783 1 
282 784 6044 3 
283 6044 322 3 
284 6044 6043 1 
285 314 70 3 
286 314 313 1 
287 72 314 3 
288 72 71 1 
289 72 798 3 
290 41 321 2 
291 313 559 2 
292 537 5779 2 
293 527 549 2 
294 528 804 3 
295 528 527 1 
296 528 558 3 
297 558 548 3 
298 558 557 1 
299 558 804 3 
300 548 528 3 
301 548 547 1 
302 804 548 3 
303 804 803 1 
304 1301 1569 2 
305 1302 1540 3 
306 1302 1301 1 
307 1540 1572 3 
308 1540 1539 1 
309 1064 1572 3 
310 1064 1063 1 
311 1064 1540 3 
312 1064 1302 3 
313 1572 1302 3 
314 1572 1571 1 
315 2315 2316 1 
316 1570 1554 3 
317 1570 1569 1 
318 1570 2542 3 
319 2542 1554 3 
320 2542 2541 1 
321 1333 2307 2 
322 1334 2054 3 
323 1334 1333 1 
324 2054 2332 3 
325 2054 2053 1 
326 2332 1334 3 
327 2332 2331 1 
328 1289 2283 2 
329 2346 3330 3 
330 2346 2345 1 
331 2346 2814 3 
332 3840 3602 3 
333 3840 3839 1 
334 3602 3832 3 
335 3602 3601 1 
336 3832 3840 3 
337 3832 3831 1 
338 3291 3299 2 
339 3067 3321 2 
340 3792 3292 3 
341 3792 3791 1 
342 3292 3310 3 
343 3292 3291 1 
344 3310 3792 3 
345 3310 3309 1 
346 3332 4588 3 
347 3332 3331 1 
348 3859 4075 2 
349 3859 3860 1 
350 4588 3776 3 
351 4588 4587 1 
352 3776 3332 3 
353 3776 3775 1 
354 3776 4086 3 
355 4567 5331 2 
356 4567 4568 1 
357 5043 5317 2 
358 5820 5552 3 
359 5820 5819 1 
360 5552 5542 3 
361 5552 5551 1 
362 5838 5837 1 
363 5822 5838 3 
364 5542 5820 3 
365 5542 5541 1 
366 5559 6053 2 
367 5825 6063 2 
368 300 76 3 
369 300 299 1 
370 300 324 3 
371 562 300 3 
372 562 561 1 
373 76 562 3 
374 76 75 1 
375 324 76 3 
376 324 323 1 
377 324 562 3 
378 1332 1066 3 
379 1332 1331 1 
380 836 1332 3 
381 836 835 1 
382 1066 836 3 
383 1066 1065 1 
384 94 1332 3 
385 94 93 1 
386 94 1066 3 
387 94 836 3 
388 2316 1096 3 
389 1096 1095 1 
390 1571 1781 2 
391 1824 1800 3 
392 1824 1823 1 
393 2292 1824 3 
394 2292 2291 1 
395 1800 2292 3 
396 1800 1799 1 
397 1800 2022 3 
398 2291 2353 2 
399 1799 2069 2 
400 2022 1824 3 
401 2022 2021 1 
402 2022 2292 3 
403 2813 3085 2 
404 2353 2354 1 
405 3351 3352 1 
406 2851 3351 2 
407 3086 2844 3 
408 3086 3085 1 
409 2562 3086 3 
410 2562 2561 1 
411 2562 3074 3 
412 2844 2562 3 
413 2844 2843 1 
414 2844 3074 3 
415 3074 3086 3 
416 3074 3073 1 
417 3563 3831 2 
418 2821 3317 2 
419 3056 2330 3 
420 3056 3055 1 
421 4086 3332 3 
422 4086 4085 1 
423 4086 4588 3 
424 3607 3813 2 
425 3063 3569 2 
426 4076 3064 3 
427 4076 4075 1 
428 2788 4076 3 
429 2788 2787 1 
430 3064 2788 3 
431 3064 3063 1 
432 4291 4587 2 
433 2787 3589 2 
434 3331 3567 2 
435 4292 3568 3 
436 4292 4291 1 
437 4292 4300 3 
438 3568 4058 3 
439 3568 3567 1 
440 3568 4300 3 
441 4797 5055 2 
442 5830 5044 3 
443 5830 5829 1 
444 5814 5044 3 
445 5814 5813 1 
446 5814 5830 3 
447 5044 5302 3 
448 5044 5043 1 
449 5302 5814 3 
450 5302 5301 1 
451 5302 5830 3 
452 5819 6083 2 
453 5543 5544 1 
454 5301 6087 2 
455 353 5541 2 
456 5318 5317 1 
457 5299 5543 2 
458 5544 5318 3 
459 783 5777 2 
460 5568 5560 3 
461 5568 5567 1 
462 5560 5808 3 
463 5560 5559 1 
464 5560 5794 3 
465 5816 74 3 
466 5816 5815 1 
467 5808 5568 3 
468 5808 5807 1 
469 6084 5816 3 
470 6084 6083 1 
471 5610 74 3 
472 5610 5609 1 
473 5610 5816 3 
474 5610 6084 3 
475 96 1324 3 
476 356 308 3 
477 355 356 1 
478 337 355 2 
479 825 1813 2 
480 581 1065 2 
481 1790 2058 3 
482 1790 1789 1 
483 1790 2354 3 
484 2058 2306 3 
485 2058 2057 1 
486 2058 3352 3 
487 2354 2582 3 
488 2354 3038 3 
489 3038 3037 1 
490 2046 2312 3 
491 2046 2582 3 
492 2070 2069 1 
493 2070 3352 3 
494 2824 3038 3 
495 2306 1790 3 
496 2306 2305 1 
497 2306 3352 3 
498 1826 2070 3 
499 2312 2311 1 
500 2071 2311 2 
501 1825 1845 2 
502 1825 1826 1 
503 1845 1846 1 
504 2580 2579 1 
505 1846 2580 3 
506 3308 3307 1 
507 3050 3308 3 
508 2330 2594 3 
509 2330 2329 1 
510 3794 3318 3 
511 3794 3793 1 
512 3318 3066 3 
513 3318 3317 1 
514 3318 3344 3 
515 3066 3794 3 
516 3066 3065 1 
517 3066 3344 3 
518 4108 4110 3 
519 4108 4107 1 
520 3324 3848 3 
521 3324 3323 1 
522 3343 3353 2 
523 3620 4108 3 
524 3620 3619 1 
525 3323 3775 2 
526 3583 3599 2 
527 4058 4292 3 
528 4058 4057 1 
529 3575 3815 2 
530 3822 4572 3 
531 3822 3821 1 
532 3822 4610 3 
533 3850 3822 3 
534 3850 3849 1 
535 3850 4610 3 
536 4610 4572 3 
537 4610 4609 1 
538 4572 3850 3 
539 4572 4571 1 
540 3835 4057 2 
541 4309 4543 2 
542 3836 4544 3 
543 3836 3835 1 
544 4798 3836 3 
545 4798 4797 1 
546 4544 4798 3 
547 4544 4543 1 
548 74 6084 3 
549 74 73 1 
550 81 82 1 
551 81 563 2 
552 82 564 3 
553 82 840 3 
554 564 563 1 
555 564 840 3 
556 840 839 1 
557 306 338 3 
558 306 305 1 
559 306 582 3 
560 572 306 3 
561 572 571 1 
562 572 582 3 
563 1638 860 3 
564 839 1337 2 
565 1637 1638 1 
566 1101 1637 2 
567 847 848 1 
568 847 2077 2 
569 2319 2320 1 
570 817 2319 2 
571 841 843 2 
572 2064 2368 3 
573 2064 2120 3 
574 1600 1599 1 
575 1600 2064 3 
576 1600 2368 3 
577 2320 1600 3 
578 2320 2368 3 
579 818 1098 3 
580 818 817 1 
581 2120 818 3 
582 2120 2119 1 
583 1098 2120 3 
584 1098 1097 1 
585 2110 2340 3 
586 2110 2109 1 
587 2110 2610 3 
588 2110 2360 3 
589 3044 2828 3 
590 3044 3043 1 
591 2828 3604 3 
592 2828 2827 1 
593 3604 3044 3 
594 3604 3603 1 
595 2338 2072 3 
596 2556 2598 3 
597 2556 2555 1 
598 2556 3314 3 
599 3848 3830 3 
600 3848 3847 1 
601 3354 3338 3 
602 3354 3353 1 
603 3338 2834 3 
604 3338 3337 1 
605 2834 3354 3 
606 2834 2833 1 
607 3830 3324 3 
608 3830 3829 1 
609 3584 3583 1 
610 3596 3584 3 
611 4117 4341 2 
612 4321 4351 2 
613 3849 4601 2 
614 3833 4571 2 
615 3833 3834 1 
616 4601 4602 1 
617 4105 4609 2 
618 4355 4603 2 
619 4834 5606 3 
620 4834 4833 1 
621 115 857 2 
622 5619 5847 2 
623 653 1147 2 
624 1834 1108 3 
625 1834 1833 1 
626 1114 812 3 
627 1114 1113 1 
628 1114 1634 3 
629 1108 862 3 
630 1108 1107 1 
631 1354 1108 3 
632 1354 1353 1 
633 1354 1834 3 
634 1634 1338 3 
635 1634 1633 1 
636 862 1354 3 
637 862 861 1 
638 862 1834 3 
639 1081 1082 1 
640 1081 1833 2 
641 1810 2090 3 
642 1810 1809 1 
643 2074 1810 3 
644 2074 2073 1 
645 2090 2074 3 
646 2090 2089 1 
647 1812 1810 3 
648 1812 1811 1 
649 1812 2074 3 
650 1812 2090 3 
651 2566 2565 1 
652 2601 2609 2 
653 1097 2565 2 
654 2109 2607 2 
655 2095 2096 1 
656 2095 2591 2 
657 2805 2806 1 
658 2805 3603 2 
659 2826 2862 3 
660 2826 2825 1 
661 3084 2826 3 
662 3084 3083 1 
663 2862 3084 3 
664 2862 2861 1 
665 2096 2366 3 
666 2352 3616 3 
667 2352 2351 1 
668 2846 2352 3 
669 2846 2845 1 
670 3616 2846 3 
671 3616 3615 1 
672 2366 2365 1 
673 2363 2861 2 
674 2364 2864 3 
675 2364 2363 1 
676 2364 2894 3 
677 2864 2894 3 
678 2864 2863 1 
679 2894 2342 3 
680 2894 2893 1 
681 2342 2864 3 
682 2342 2341 1 
683 2342 2364 3 
684 3092 3606 3 
685 3092 3091 1 
686 3606 3864 3 
687 3606 3605 1 
688 3864 3092 3 
689 3864 3863 1 
690 4822 4346 3 
691 4822 4821 1 
692 4346 4342 3 
693 4346 4345 1 
694 4122 4822 3 
695 4122 4346 3 
696 4122 4121 1 
697 4342 4122 3 
698 4342 4822 3 
699 4342 4341 1 
700 3861 3862 1 
701 3861 4345 2 
702 4087 4093 2 
703 4332 4100 3 
704 4332 4331 1 
705 4100 4856 3 
706 4100 4099 1 
707 4324 4100 3 
708 4324 4323 1 
709 4324 4332 3 
710 4324 4856 3 
711 4856 4332 3 
712 4856 4855 1 
713 4088 4820 3 
714 4088 4087 1 
715 4088 5802 3 
716 4820 5110 3 
717 4820 4819 1 
718 4820 5802 3 
719 4323 5349 2 
720 4340 4604 3 
721 4340 4339 1 
722 4604 5346 3 
723 4604 4603 1 
724 5346 4340 3 
725 5346 5345 1 
726 5079 5345 2 
727 5091 5605 2 
728 5349 5350 1 
729 5092 5376 3 
730 5092 5091 1 
731 5092 5106 3 
732 4580 5092 3 
733 4580 4579 1 
734 5376 4580 3 
735 5376 5375 1 
736 5106 4580 3 
737 5106 5105 1 
738 5106 5376 3 
739 44 110 3 
740 44 43 1 
741 116 115 1 
742 90 116 3 
743 2073 2879 2 
744 2879 2880 1 
745 1850 2566 3 
746 2880 870 3 
747 870 869 1 
748 1606 1630 3 
749 1606 1605 1 
750 2602 1606 3 
751 2602 2601 1 
752 1811 2623 2 
753 1836 1606 3 
754 1836 1835 1 
755 1836 2602 3 
756 1630 1836 3 
757 1630 1629 1 
758 1630 2602 3 
759 1849 1850 1 
760 1617 2855 2 
761 1589 1849 2 
762 2624 2344 3 
763 2624 2623 1 
764 2344 2850 3 
765 2344 2343 1 
766 2344 2608 3 
767 2608 2624 3 
768 2608 2607 1 
769 2608 2850 3 
770 2850 2624 3 
771 2850 2849 1 
772 3100 2854 3 
773 2854 2853 1 
774 2825 3339 2 
775 2333 2849 2 
776 2619 2853 2 
777 2351 2357 2 
778 2357 2358 1 
779 2611 3083 2 
780 2611 2612 1 
781 2365 2595 2 
782 2595 2596 1 
783 2874 2618 3 
784 2874 2873 1 
785 2618 2620 3 
786 2618 2617 1 
787 2612 3180 3 
788 2620 2874 3 
789 2620 2619 1 
790 4121 4607 2 
791 3624 3623 1 
792 3862 3624 3 
793 3124 2336 3 
794 3124 3123 1 
795 3124 3874 3 
796 5872 372 3 
797 5872 5871 1 
798 852 851 1 
799 1080 852 3 
800 5890 900 3 
801 5890 5889 1 
802 612 5890 3 
803 612 611 1 
804 900 612 3 
805 900 899 1 
806 1432 1356 3 
807 1432 1431 1 
808 1356 1106 3 
809 1356 1355 1 
810 1106 1432 3 
811 1106 1105 1 
812 877 5875 2 
813 615 1431 2 
814 1605 1869 2 
815 1590 2376 3 
816 1590 1589 1 
817 1862 1590 3 
818 1862 1861 1 
819 2376 1862 3 
820 2376 2375 1 
821 2616 2856 3 
822 2616 2615 1 
823 1858 1857 1 
824 1858 3340 3 
825 1858 2616 3 
826 3340 2616 3 
827 3340 3339 1 
828 2856 1858 3 
829 2856 2855 1 
830 2856 3340 3 
831 2343 2369 2 
832 1889 2389 2 
833 3104 2634 3 
834 3104 3103 1 
835 2604 2384 3 
836 2604 2603 1 
837 2604 3104 3 
838 2384 2634 3 
839 2384 2383 1 
840 2384 3104 3 
841 2634 2604 3 
842 2634 2633 1 
843 2370 3132 3 
844 2370 2369 1 
845 2904 2390 3 
846 2390 2389 1 
847 1847 2615 2 
848 2829 3103 2 
849 2873 3643 2 
850 1848 1847 1 
851 2596 1848 3 
852 2870 2869 1 
853 2358 2870 3 
854 3380 3644 3 
855 3380 3379 1 
856 3844 3380 3 
857 3844 3843 1 
858 3644 3844 3 
859 3644 3643 1 
860 3397 3843 2 
861 3398 3896 3 
862 3398 3397 1 
863 3398 3868 3 
864 2877 3897 2 
865 3869 4385 2 
866 3143 3641 2 
867 4370 4104 3 
868 4370 4369 1 
869 4870 4370 3 
870 4870 4869 1 
871 3626 4370 3 
872 3626 4870 3 
873 3626 4104 3 
874 4104 4870 3 
875 4104 4103 1 
876 4103 4115 2 
877 5356 5122 3 
878 5356 5355 1 
879 4120 5356 3 
880 4120 4119 1 
881 5122 4120 3 
882 5122 5121 1 
883 4621 4627 2 
884 4640 4628 3 
885 4640 4639 1 
886 4628 4646 3 
887 4628 4627 1 
888 4646 4640 3 
889 4646 4645 1 
890 4598 4646 3 
891 4598 4597 1 
892 4598 4628 3 
893 4598 4640 3 
894 5878 4156 3 
895 5878 5877 1 
896 4156 5362 3 
897 4156 4155 1 
898 5362 5878 3 
899 5362 5361 1 
900 4371 5625 2 
901 389 899 2 
902 1376 1375 1 
903 1874 1900 3 
904 1874 1873 1 
905 1900 1918 3 
906 1900 1899 1 
907 1358 1874 3 
908 1358 1357 1 
909 1358 1918 3 
910 1358 1900 3 
911 1918 1874 3 
912 1918 1917 1 
913 1137 1138 1 
914 1137 1375 2 
915 634 1614 3 
916 1614 1613 1 
917 1381 1382 1 
918 1381 1897 2 
919 1870 1852 3 
920 1870 1869 1 
921 2614 2132 3 
922 2891 3131 2 
923 2676 2658 3 
924 2676 2675 1 
925 3668 2676 3 
926 3668 3667 1 
927 3418 2676 3 
928 3418 3417 1 
929 3418 3668 3 
930 3379 3895 2 
931 3896 3140 3 
932 3896 3895 1 
933 3868 3140 3 
934 3868 3867 1 
935 3868 3896 3 
936 3140 3398 3 
937 3140 3139 1 
938 2886 2885 1 
939 2868 2886 3 
940 3371 3372 1 
941 2867 3635 2 
942 2867 2868 1 
943 3130 3636 3 
944 3130 3129 1 
945 3136 2878 3 
946 2878 2877 1 
947 3923 4923 2 
948 3642 3902 3 
949 3642 3641 1 
950 3618 3642 3 
951 3618 3617 1 
952 3618 3924 3 
953 3902 3618 3 
954 3902 3901 1 
955 3902 3924 3 
956 3924 3642 3 
957 3924 3923 1 
958 4397 5355 2 
959 5410 4406 3 
960 5410 5409 1 
961 5424 5894 3 
962 5424 5423 1 
963 4639 4669 2 
964 4669 4670 1 
965 4882 5114 3 
966 4882 4881 1 
967 5114 4638 3 
968 5114 5113 1 
969 4864 4882 3 
970 4864 4863 1 
971 4864 5114 3 
972 4638 4882 3 
973 4638 4637 1 
974 4638 4864 3 
975 929 5877 2 
976 150 6124 3 
977 150 149 1 
978 150 160 3 
979 150 6154 3 
980 6154 6124 3 
981 6154 6153 1 
982 160 6154 3 
983 160 159 1 
984 642 144 3 
985 642 641 1 
986 642 6148 3 
987 6148 416 3 
988 6148 6147 1 
989 416 144 3 
990 416 415 1 
991 416 642 3 
992 144 6148 3 
993 144 143 1 
994 1898 1624 3 
995 1898 1897 1 
996 2125 2126 1 
997 2125 2151 2 
998 1682 1162 3 
999 1682 1681 1 
1000 1682 1898 3 
1001 414 1376 3 
1002 2174 2152 3 
1003 2174 2173 1 
1004 2152 2374 3 
1005 2152 2151 1 
1006 2374 2174 3 
1007 2374 2373 1 
1008 1882 2174 3 
1009 1882 1881 1 
1010 1882 2374 3 
1011 1882 2152 3 
1012 1908 1907 1 
1013 1907 2373 2 
1014 1385 1881 2 
1015 2626 1386 3 
1016 2626 2625 1 
1017 2613 2614 1 
1018 2407 2613 2 
1019 2651 2675 2 
1020 2658 3418 3 
1021 2658 2657 1 
1022 2658 3668 3 
1023 3399 3667 2 
1024 3408 3400 3 
1025 3408 3407 1 
1026 3400 2680 3 
1027 3400 3399 1 
1028 3146 3130 3 
1029 3146 3145 1 
1030 3372 3910 3 
1031 3636 3146 3 
1032 3636 3635 1 
1033 3910 3909 1 
1034 3115 3129 2 
1035 3135 3909 2 
1036 3135 3136 1 
1037 4923 4924 1 
1038 4160 4159 1 
1039 4658 4160 3 
1040 4159 4895 2 
1041 5409 5427 2 
1042 4675 4887 2 
1043 4919 5423 2 
1044 403 5389 2 
1045 121 123 2 
1046 668 182 3 
1047 668 667 1 
1048 386 668 3 
1049 386 385 1 
1050 136 668 3 
1051 136 135 1 
1052 136 386 3 
1053 914 674 3 
1054 914 913 1 
1055 172 914 3 
1056 172 171 1 
1057 172 430 3 
1058 172 674 3 
1059 430 914 3 
1060 430 429 1 
1061 182 136 3 
1062 182 181 1 
1063 182 386 3 
1064 151 641 2 
1065 152 151 1 
1066 1142 152 3 
1067 415 421 2 
1068 2148 1908 3 
1069 1151 6159 2 
1070 1643 1673 2 
1071 1145 1146 1 
1072 1145 1175 2 
1073 1644 940 3 
1074 1644 1643 1 
1075 1176 2130 3 
1076 1176 1175 1 
1077 1176 1644 3 
1078 2130 1644 3 
1079 2130 2129 1 
1080 2129 2175 2 
1081 2402 2888 3 
1082 2402 2401 1 
1083 2872 2402 3 
1084 2872 2871 1 
1085 2888 2872 3 
1086 2888 2887 1 
1087 2648 1938 3 
1088 2648 2647 1 
1089 2680 2158 3 
1090 2680 2679 1 
1091 2680 3408 3 
1092 3680 2934 3 
1093 3680 3679 1 
1094 2934 3174 3 
1095 2934 2933 1 
1096 2158 3400 3 
1097 2158 2157 1 
1098 2158 3408 3 
1099 2656 2934 3 
1100 2656 2655 1 
1101 2656 3680 3 
1102 3174 2656 3 
1103 3174 3173 1 
1104 3174 3680 3 
1105 3163 3173 2 
1106 3425 3935 2 
1107 5434 5194 3 
1108 5194 5193 1 
1109 4400 4888 3 
1110 4400 4399 1 
1111 4888 4878 3 
1112 4888 4887 1 
1113 4878 4400 3 
1114 4878 4877 1 
1115 5663 5664 1 
1116 111 5391 2 
1117 6168 122 3 
1118 6168 6167 1 
1119 5392 6168 3 
1120 5392 5391 1 
1121 122 5392 3 
1122 122 121 1 
1123 425 447 2 
1124 405 913 2 
1125 673 951 2 
1126 701 1173 2 
1127 1152 656 3 
1128 1152 1151 1 
1129 934 422 3 
1130 934 933 1 
1131 934 1152 3 
1132 656 422 3 
1133 656 655 1 
1134 656 934 3 
1135 940 2130 3 
1136 940 939 1 
1137 940 1176 3 
1138 1948 2666 3 
1139 2662 2648 3 
1140 2662 2661 1 
1141 2666 2665 1 
1142 2185 2193 2 
1143 2871 2907 2 
1144 2673 3165 2 
1145 2933 3649 2 
1146 3164 3666 3 
1147 3164 3163 1 
1148 3164 3388 3 
1149 3906 3164 3 
1150 3906 3905 1 
1151 3666 3906 3 
1152 3666 3665 1 
1153 3388 3906 3 
1154 3388 3387 1 
1155 3388 3666 3 
1156 3193 4171 2 
1157 3665 4147 2 
1158 4428 4674 3 
1159 4428 4427 1 
1160 4428 4430 3 
1161 4430 4168 3 
1162 4430 4429 1 
1163 4430 4674 3 
1164 4674 4168 3 
1165 4674 4673 1 
1166 4168 4428 3 
1167 4168 4167 1 
1168 4655 4917 2 
1169 4399 5617 2 
1170 4138 4137 1 
1171 5664 4138 3 
1172 4913 5165 2 
1173 5433 5434 1 
1174 5369 5433 2 
1175 6167 6189 2 
1176 5444 5660 3 
1177 5444 5443 1 
1178 5660 5956 3 
1179 5660 5659 1 
1180 6190 5978 3 
1181 6190 6189 1 
1182 406 405 1 
1183 6196 406 3 
1184 175 901 2 
1185 702 952 3 
1186 702 701 1 
1187 692 702 3 
1188 692 691 1 
1189 692 952 3 
1190 460 702 3 
1191 460 459 1 
1192 460 692 3 
1193 952 460 3 
1194 952 951 1 
1195 2431 2437 2 
1196 1436 2448 3 
1197 2674 3186 3 
1198 2674 2673 1 
1199 2192 3186 3 
1200 2192 2191 1 
1201 2192 2674 3 
1202 2670 2192 3 
1203 2670 2669 1 
1204 2670 2674 3 
1205 3186 2670 3 
1206 3186 3185 1 
1207 3675 3687 2 
1208 4429 4695 2 
1209 4167 4457 2 
1210 4165 4673 2 
1211 5370 5166 3 
1212 5370 5369 1 
1213 5370 5416 3 
1214 5166 4390 3 
1215 5166 5165 1 
1216 5416 5166 3 
1217 5416 5415 1 
1218 5429 5669 2 
1219 5218 5220 3 
1220 5218 5217 1 
1221 4390 5370 3 
1222 4390 4389 1 
1223 4390 5416 3 
1224 5918 5917 1 
1225 6184 5918 3 
1226 730 729 1 
1227 5944 5943 1 
1228 936 682 3 
1229 936 935 1 
1230 710 936 3 
1231 710 709 1 
1232 709 1461 2 
1233 682 672 3 
1234 682 681 1 
1235 682 710 3 
1236 672 936 3 
1237 672 671 1 
1238 672 710 3 
1239 671 921 2 
1240 2426 1940 3 
1241 1954 1702 3 
1242 1954 1953 1 
1243 1954 1960 3 
1244 1200 1960 3 
1245 1200 1199 1 
1246 1200 1954 3 
1247 1199 1683 2 
1248 1689 1959 2 
1249 1435 1436 1 
1250 1435 2447 2 
1251 2432 1706 3 
1252 2432 2431 1 
1253 1706 1688 3 
1254 1706 1705 1 
1255 1688 2432 3 
1256 1688 1687 1 
1257 2926 2442 3 
1258 2926 1950 3 
1259 2926 2925 1 
1260 3401 3435 2 
1261 3401 3402 1 
1262 3402 2900 3 
1263 2900 2899 1 
1264 2899 3673 2 
1265 4672 4671 1 
1266 3929 4667 2 
1267 4219 4693 2 
1268 4219 4220 1 
1269 3430 3930 3 
1270 3430 3429 1 
1271 3930 4166 3 
1272 3930 3929 1 
1273 4166 3430 3 
1274 4166 4165 1 
1275 5196 5462 3 
1276 5462 5461 1 
1277 4447 5217 2 
1278 5195 5196 1 
1279 5195 5219 2 
1280 6217 6218 1 
1281 5220 4460 3 
1282 5220 5219 1 
1283 4460 5218 3 
1284 4460 4459 1 
1285 693 1177 2 
1286 694 693 1 
1287 428 694 3 
1288 462 198 3 
1289 195 196 1 
1290 195 1383 2 
1291 197 449 2 
1292 5994 730 3 
1293 178 177 1 
1294 222 178 3 
1295 221 222 1 
1296 221 431 2 
1297 1189 1190 1 
1298 177 1189 2 
1299 1462 1496 3 
1300 1462 1461 1 
1301 1422 1496 3 
1302 1422 1421 1 
1303 1422 1480 3 
1304 1422 1462 3 
1305 1480 1462 3 
1306 1480 1479 1 
1307 1940 1939 1 
1308 1225 1421 2 
1309 1702 1200 3 
1310 1702 1701 1 
1311 1217 1941 2 
1312 1960 1702 3 
1313 1960 1959 1 
1314 726 1214 3 
1315 726 725 1 
1316 726 1226 3 
1317 1226 1214 3 
1318 1226 1225 1 
1319 1226 2204 3 
1320 1214 2204 3 
1321 1214 1213 1 
1322 1687 1949 2 
1323 1950 2440 3 
1324 1950 1949 1 
1325 2442 1950 3 
1326 2442 2440 3 
1327 2442 2441 1 
1328 3674 3673 1 
1329 3172 3674 3 
1330 3171 3172 1 
1331 3171 3189 2 
1332 2948 3958 3 
1333 2948 2947 1 
1334 2948 3450 3 
1335 2948 3946 3 
1336 3498 3690 3 
1337 3498 3497 1 
1338 3958 3946 3 
1339 3958 3957 1 
1340 3946 3450 3 
1341 3946 3945 1 
1342 3450 3958 3 
1343 3450 3449 1 
1344 3460 3459 1 
1345 3976 3460 3 
1346 3961 4435 2 
1347 3690 3888 3 
1348 3690 3689 1 
1349 3945 4671 2 
1350 4220 4672 3 
1351 3888 3498 3 
1352 3888 3887 1 
1353 3926 3968 3 
1354 3968 3967 1 
1355 3449 3941 2 
1356 4425 4955 2 
1357 3429 3693 2 
1358 4209 5451 2 
1359 4698 4448 3 
1360 4698 4697 1 
1361 4698 5442 3 
1362 4448 4210 3 
1363 4448 4447 1 
1364 4448 5442 3 
1365 4210 4698 3 
1366 4210 4209 1 
1367 5442 4210 3 
1368 5442 5441 1 
1369 4697 5457 2 
1370 4459 4707 2 
1371 5696 5230 3 
1372 5696 5695 1 
1373 5696 6240 3 
1374 6240 5470 3 
1375 6240 6239 1 
1376 5470 5696 3 
1377 5470 5469 1 
1378 5230 5470 3 
1379 5230 5229 1 
1380 5230 6240 3 
1381 424 423 1 
1382 6218 424 3 
1383 5206 5964 3 
1384 5206 5205 1 
1385 5206 5938 3 
1386 5938 5964 3 
1387 5938 5937 1 
1388 5938 6174 3 
1389 5964 6174 3 
1390 5964 5963 1 
1391 6174 5206 3 
1392 6174 6173 1 
1393 5484 5483 1 
1394 5972 5484 3 
1395 179 461 2 
1396 209 729 2 
1397 461 462 1 
1398 6192 432 3 
1399 6192 6191 1 
1400 432 454 3 
1401 432 431 1 
1402 454 6192 3 
1403 454 453 1 
1404 1457 1479 2 
1405 1496 1480 3 
1406 1496 1495 1 
1407 216 6200 3 
1408 216 215 1 
1409 216 1714 3 
1410 6200 472 3 
1411 6200 6199 1 
1412 1714 6200 3 
1413 1714 1713 1 
1414 1720 1719 1 
1415 1720 2206 3 
1416 1942 1964 3 
1417 1942 1941 1 
1418 1942 2206 3 
1419 1964 1720 3 
1420 1964 1963 1 
1421 1964 2206 3 
1422 3964 3232 3 
1423 3964 3963 1 
1424 3192 3964 3 
1425 3192 3191 1 
1426 3232 3192 3 
1427 3232 3231 1 
1428 3232 3444 3 
1429 3225 3963 2 
1430 2445 2446 1 
1431 2445 3207 2 
1432 3719 3931 2 
1433 3932 3934 3 
1434 3932 3931 1 
1435 3694 4956 3 
1436 3694 3693 1 
1437 3694 3934 3 
1438 3694 3932 3 
1439 3466 3762 3 
1440 3466 3465 1 
1441 4956 3932 3 
1442 4956 4955 1 
1443 3761 5441 2 
1444 3762 4464 3 
1445 3762 3761 1 
1446 4464 3466 3 
1447 4464 4463 1 
1448 5963 5979 2 
1449 5693 5695 2 
1450 465 6239 2 
1451 466 5464 3 
1452 466 465 1 
1453 5464 232 3 
1454 5464 5463 1 
1455 706 180 3 
1456 706 705 1 
1457 706 5478 3 
1458 6164 5486 3 
1459 6164 6163 1 
1460 5968 706 3 
1461 5968 5967 1 
1462 5478 5968 3 
1463 5478 5477 1 
1464 5676 6164 3 
1465 5676 5675 1 
1466 5486 5676 3 
1467 5486 5485 1 
1468 705 6191 2 
1469 479 480 1 
1470 464 463 1 
1471 480 464 3 
1472 1216 1458 3 
1473 1216 1215 1 
1474 1470 1216 3 
1475 1470 1469 1 
1476 1458 1470 3 
1477 1458 1457 1 
1478 1736 2730 3 
1479 1736 1735 1 
1480 2236 1736 3 
1481 2236 2235 1 
1482 1486 2236 3 
1483 1486 1485 1 
1484 1486 2730 3 
1485 1486 1736 3 
1486 3219 3445 2 
1487 2190 3984 3 
1488 2190 2450 3 
1489 2190 2189 1 
1490 2450 3208 3 
1491 2450 2449 1 
1492 3208 2190 3 
1493 3208 3984 3 
1494 3208 3207 1 
1495 3984 2450 3 
1496 3984 3983 1 
1497 3718 3490 3 
1498 3718 3717 1 
1499 3718 3726 3 
1500 4208 4198 3 
1501 4208 4207 1 
1502 3934 4956 3 
1503 3934 3933 1 
1504 4252 4508 3 
1505 4508 4507 1 
1506 4982 4992 3 
1507 4982 4981 1 
1508 4714 4982 3 
1509 4714 4713 1 
1510 4992 4714 3 
1511 4992 4991 1 
1512 4733 4734 1 
1513 4733 5025 2 
1514 201 5703 2 
1515 4981 5203 2 
1516 202 5468 3 
1517 202 201 1 
1518 202 5992 3 
1519 202 230 3 
1520 6215 6216 1 
1521 232 466 3 
1522 232 231 1 
1523 231 5973 2 
1524 5477 5719 2 
1525 438 6238 3 
1526 438 437 1 
1527 438 504 3 
1528 438 6250 3 
1529 6236 994 3 
1530 6236 6235 1 
1531 731 749 2 
1532 463 971 2 
1533 971 972 1 
1534 491 739 2 
1535 1459 1709 2 
1536 1473 1474 1 
1537 1474 1478 3 
1538 1478 1477 1 
1539 1477 1991 2 
1540 1991 1992 1 
1541 1501 1537 2 
1542 1501 1502 1 
1543 2460 2700 3 
1544 2460 2459 1 
1545 3472 2460 3 
1546 3472 3471 1 
1547 3979 3983 2 
1548 4241 4242 1 
1549 3980 3979 1 
1550 4486 3478 3 
1551 4486 4485 1 
1552 3722 3478 3 
1553 3722 3721 1 
1554 3722 4486 3 
1555 3478 3508 3 
1556 3478 3477 1 
1557 3508 4486 3 
1558 3508 3507 1 
1559 3508 3722 3 
1560 4479 4713 2 
1561 4259 4721 2 
1562 5252 5251 1 
1563 5028 4232 3 
1564 5028 5027 1 
1565 4016 5028 3 
1566 4016 4015 1 
1567 4016 5012 3 
1568 5012 4232 3 
1569 5012 5011 1 
1570 5012 5028 3 
1571 4232 4016 3 
1572 4232 4231 1 
1573 4734 5252 3 
1574 4251 4711 2 
1575 4251 4252 1 
1576 4501 4991 2 
1577 5246 5248 3 
1578 5248 5247 1 
1579 5267 5745 2 
1580 5992 5468 3 
1581 5992 5991 1 
1582 236 242 3 
1583 236 5974 3 
1584 236 235 1 
1585 5974 226 3 
1586 5974 5973 1 
1587 226 236 3 
1588 226 225 1 
1589 242 5974 3 
1590 242 226 3 
1591 242 241 1 
1592 5497 5498 1 
1593 5247 5497 2 
1594 5487 5991 2 
1595 225 6025 2 
1596 5498 5726 3 
1597 5498 5998 3 
1598 508 254 3 
1599 508 507 1 
1600 508 6026 3 
1601 253 6235 2 
1602 5730 5729 1 
1603 46 5730 3 
1604 268 1024 3 
1605 988 260 3 
1606 6051 6052 1 
1607 243 475 2 
1608 1024 1023 1 
1609 475 476 1 
1610 740 1202 3 
1611 740 739 1 
1612 740 958 3 
1613 2461 2462 1 
1614 1945 2227 2 
1615 1503 2761 2 
1616 2507 2755 2 
1617 2223 3447 2 
1618 2791 3267 2 
1619 2516 4004 3 
1620 2516 2515 1 
1621 3474 3980 3 
1622 3812 3016 3 
1623 3812 3811 1 
1624 3016 3798 3 
1625 3016 3015 1 
1626 3254 3253 1 
1627 3798 3812 3 
1628 3798 3797 1 
1629 3492 3254 3 
1630 3491 3492 1 
1631 3491 4485 2 
1632 3477 3721 2 
1633 4223 4224 1 
1634 4223 4757 2 
1635 4722 4990 3 
1636 4722 4721 1 
1637 3751 4015 2 
1638 4724 4723 1 
1639 4757 4758 1 
1640 5222 4722 3 
1641 5222 5221 1 
1642 4284 5222 3 
1643 4284 4283 1 
1644 4284 4722 3 
1645 4284 4990 3 
1646 4990 5222 3 
1647 4990 4989 1 
1648 4758 4724 3 
1649 3752 4978 3 
1650 3752 3751 1 
1651 3752 4712 3 
1652 5750 5749 1 
1653 6026 5982 3 
1654 6026 6025 1 
1655 247 5753 2 
1656 5784 6038 3 
1657 5255 5747 2 
1658 6038 6037 1 
1659 490 5754 3 
1660 490 489 1 
1661 24 474 3 
1662 24 23 1 
1663 24 6018 3 
1664 24 6014 3 
1665 6014 6018 3 
1666 6014 6013 1 
1667 5754 5518 3 
1668 5754 5753 1 
1669 6018 474 3 
1670 6018 6017 1 
1671 474 6014 3 
1672 474 473 1 
1673 33 501 2 
1674 501 502 1 
1675 473 525 2 
1676 525 526 1 
1677 1011 1483 2 
1678 502 1022 3 
1679 502 516 3 
1680 711 721 2 
1681 516 284 3 
1682 515 516 1 
1683 515 1263 2 
1684 1012 782 3 
1685 1012 1011 1 
1686 1012 1030 3 
1687 1012 1276 3 
1688 782 1276 3 
1689 782 781 1 
1690 526 522 3 
1691 526 1022 3 
1692 522 521 1 
1693 522 768 3 
1694 1030 782 3 
1695 1030 1029 1 
1696 270 522 3 
1697 270 768 3 
1698 270 526 3 
1699 1013 1241 2 
1700 781 1523 2 
1701 535 1021 2 
1702 1021 1022 1 
1703 741 742 1 
1704 741 973 2 
1705 3 747 2 
1706 1242 1738 3 
1707 1242 1241 1 
1708 1019 1779 2 
1709 485 1239 2 
1710 1738 486 3 
1711 1738 1737 1 
1712 1249 1489 2 
1713 505 506 1 
1714 505 743 2 
1715 1758 1020 3 
1716 1758 1757 1 
1717 1020 536 3 
1718 1020 1019 1 
1719 536 1002 3 
1720 536 535 1 
1721 536 1758 3 
1722 486 1242 3 
1723 486 485 1 
1724 509 1243 2 
1725 1002 1020 3 
1726 1002 1001 1 
1727 1002 1758 3 
1728 1227 1739 2 
1729 1238 1237 1 
1730 1279 2019 2 
1731 2770 2294 3 
1732 2770 2769 1 
1733 2266 2770 3 
1734 2266 2265 1 
1735 2274 2266 3 
1736 2274 2273 1 
1737 2274 2294 3 
1738 2274 2770 3 
1739 2294 2266 3 
1740 2294 2293 1 
1741 1511 1512 1 
1742 1511 1743 2 
1743 1743 1744 1 
1744 2253 2254 1 
1745 1723 2253 2 
1746 1751 2769 2 
1747 2023 2293 2 
1748 534 533 1 
1749 1512 534 3 
1750 1237 2471 2 
1751 2785 2786 1 
1752 2009 2505 2 