ITEM: TIMESTEP
34320
ITEM: NUMBER OF ENTRIES
6517
ITEM: BOX BOUNDS pp pp ff
0.0000000000000000e+00 7.2168784000000002e+01
0.0000000000000000e+00 7.2168784000000002e+01
0.0000000000000000e+00 1.2000000000000000e+01
ITEM: ENTRIES index c_1[1] c_1[2] c_1[3]
1 251 252 1 
2 29 251 2 
3 233 269 2 
4 269 270 1 
5 754 756 3 
6 756 755 1 
7 6 5 1 
8 1240 6 3 
9 981 982 1 
10 981 1235 2 
11 1525 1526 1 
12 1525 1765 2 
13 1751 1752 1 
14 1751 2769 2 
15 2732 1504 3 
16 2732 2731 1 
17 2732 2762 3 
18 2762 1504 3 
19 2762 2761 1 
20 1504 2252 3 
21 1504 1503 1 
22 2252 2732 3 
23 2252 2251 1 
24 2252 2762 3 
25 2495 2496 1 
26 3256 3255 1 
27 2962 3256 3 
28 3986 3510 3 
29 3986 3985 1 
30 3510 3010 3 
31 3510 3509 1 
32 3010 3986 3 
33 3010 3009 1 
34 3303 3304 1 
35 4011 4012 1 
36 3491 3492 1 
37 4022 4021 1 
38 3504 4022 3 
39 4012 3770 3 
40 4487 4488 1 
41 6246 5238 3 
42 5238 5237 1 
43 5525 5526 1 
44 4275 5525 2 
45 5738 5744 3 
46 5738 5737 1 
47 4494 5738 3 
48 4494 4493 1 
49 5744 4494 3 
50 5744 5743 1 
51 5507 5508 1 
52 4755 5501 2 
53 5981 6007 2 
54 34 248 3 
55 34 33 1 
56 34 6022 3 
57 5765 6013 2 
58 6022 248 3 
59 6022 6021 1 
60 6241 6242 1 
61 257 6241 2 
62 257 258 1 
63 6018 6014 3 
64 6014 6013 1 
65 525 526 1 
66 1042 1244 3 
67 1042 1041 1 
68 270 522 3 
69 270 768 3 
70 270 526 3 
71 768 1022 3 
72 1244 778 3 
73 1244 1243 1 
74 535 1021 2 
75 1021 1022 1 
76 1002 536 3 
77 1002 1001 1 
78 536 1020 3 
79 536 535 1 
80 1020 1002 3 
81 1020 1019 1 
82 1266 2014 3 
83 2014 2013 1 
84 2504 2740 3 
85 2531 2731 2 
86 2532 2772 3 
87 2532 2531 1 
88 3495 3496 1 
89 2511 2512 1 
90 2511 2767 2 
91 3271 3495 2 
92 3790 3534 3 
93 3790 3789 1 
94 2524 3534 3 
95 2524 2523 1 
96 2524 3790 3 
97 3511 3512 1 
98 3534 3316 3 
99 3534 3533 1 
100 3316 2524 3 
101 3316 3315 1 
102 3316 3790 3 
103 3290 2784 3 
104 2784 2783 1 
105 3512 3526 3 
106 3526 3525 1 
107 3540 4524 3 
108 3539 3540 1 
109 4534 5036 3 
110 4534 4533 1 
111 4264 5036 3 
112 4264 4263 1 
113 4264 4534 3 
114 5036 4282 3 
115 5036 5035 1 
116 4282 4264 3 
117 4282 4281 1 
118 4282 4534 3 
119 3771 3772 1 
120 3771 4723 2 
121 4276 4048 3 
122 4276 4275 1 
123 4500 4276 3 
124 4500 4499 1 
125 4048 4500 3 
126 4048 4047 1 
127 4047 4499 2 
128 6245 6246 1 
129 4037 4038 1 
130 5290 4754 3 
131 5290 5289 1 
132 4516 4780 3 
133 4516 4515 1 
134 4746 5002 3 
135 4746 4745 1 
136 4746 5290 3 
137 6011 6012 1 
138 23 24 1 
139 33 501 2 
140 522 521 1 
141 522 768 3 
142 767 768 1 
143 767 1043 2 
144 759 777 2 
145 296 786 3 
146 296 295 1 
147 540 1044 3 
148 540 539 1 
149 518 296 3 
150 518 517 1 
151 1044 1048 3 
152 1044 1043 1 
153 786 518 3 
154 786 785 1 
155 760 1054 3 
156 760 759 1 
157 1308 760 3 
158 1308 1307 1 
159 1054 1308 3 
160 1054 1053 1 
161 793 794 1 
162 534 533 1 
163 2024 2023 1 
164 1744 2024 3 
165 1520 1519 1 
166 2314 1520 3 
167 2301 2302 1 
168 2301 2797 2 
169 3496 3022 3 
170 3022 3021 1 
171 3795 3796 1 
172 4524 4523 1 
173 3798 3812 3 
174 3798 3797 1 
175 3016 3798 3 
176 3016 3015 1 
177 3812 3016 3 
178 3812 3811 1 
179 5002 4754 3 
180 5002 5001 1 
181 5002 5290 3 
182 4759 4760 1 
183 4754 4746 3 
184 4754 4753 1 
185 5319 5320 1 
186 542 5540 3 
187 542 541 1 
188 6030 542 3 
189 6030 6029 1 
190 322 6044 3 
191 322 321 1 
192 538 322 3 
193 538 537 1 
194 6044 538 3 
195 6044 6043 1 
196 1048 540 3 
197 1048 1047 1 
198 295 815 2 
199 47 48 1 
200 47 517 2 
201 815 816 1 
202 1281 1541 2 
203 1571 1781 2 
204 1821 1822 1 
205 1772 1282 3 
206 1772 1771 1 
207 1774 1772 3 
208 1774 1773 1 
209 1282 1774 3 
210 1282 1281 1 
211 1795 2053 2 
212 1782 1781 1 
213 1822 1782 3 
214 2776 2044 3 
215 2776 2775 1 
216 2044 2564 3 
217 2044 2043 1 
218 1796 2564 3 
219 1796 1795 1 
220 1796 2776 3 
221 1796 2044 3 
222 2564 2776 3 
223 2564 2563 1 
224 2313 2775 2 
225 2313 2314 1 
226 2808 2807 1 
227 3292 3291 1 
228 3310 3292 3 
229 4034 4033 1 
230 4044 4034 3 
231 3803 4051 2 
232 4051 4052 1 
233 5292 5291 1 
234 4302 5292 3 
235 4301 4302 1 
236 4301 4315 2 
237 4315 4316 1 
238 3805 3806 1 
239 4293 4557 2 
240 4803 4804 1 
241 4803 5797 2 
242 5779 5780 1 
243 5540 6030 3 
244 5540 5539 1 
245 6036 6035 1 
246 255 256 1 
247 554 546 3 
248 554 553 1 
249 546 792 3 
250 546 545 1 
251 792 554 3 
252 792 791 1 
253 1290 1792 3 
254 1290 1289 1 
255 1290 1542 3 
256 1792 2308 3 
257 1792 1791 1 
258 2308 1290 3 
259 2308 2307 1 
260 1542 1792 3 
261 1542 1541 1 
262 1542 2308 3 
263 1302 1540 3 
264 1302 1301 1 
265 1572 1302 3 
266 1572 1571 1 
267 1540 1572 3 
268 1540 1539 1 
269 1333 2307 2 
270 1561 1562 1 
271 2054 2332 3 
272 2054 2053 1 
273 2328 1828 3 
274 2328 2327 1 
275 3043 3044 1 
276 2801 2802 1 
277 4545 4546 1 
278 3574 4066 3 
279 3574 3573 1 
280 3776 3775 1 
281 3332 3776 3 
282 3558 4066 3 
283 3558 3557 1 
284 3558 3574 3 
285 4059 4060 1 
286 4059 4065 2 
287 3331 3332 1 
288 3331 3567 2 
289 3567 3568 1 
290 4085 4086 1 
291 4305 4306 1 
292 4053 4305 2 
293 4767 4783 2 
294 4784 5792 3 
295 4784 4783 1 
296 4784 5566 3 
297 4784 5048 3 
298 4804 5296 3 
299 5296 5295 1 
300 5048 5792 3 
301 5048 5047 1 
302 5566 5048 3 
303 5566 5565 1 
304 5792 5566 3 
305 5792 5791 1 
306 64 63 1 
307 6062 64 3 
308 5814 5302 3 
309 5813 5814 1 
310 523 524 1 
311 524 6036 3 
312 18 5788 3 
313 562 300 3 
314 562 561 1 
315 6055 6056 1 
316 59 6055 2 
317 798 70 3 
318 798 797 1 
319 314 798 3 
320 314 313 1 
321 70 314 3 
322 70 69 1 
323 821 822 1 
324 1560 1559 1 
325 1301 1569 2 
326 1334 2054 3 
327 1334 1333 1 
328 2332 1334 3 
329 2332 2331 1 
330 2353 2354 1 
331 2588 1806 3 
332 2588 2587 1 
333 2324 2588 3 
334 2324 2323 1 
335 1578 2588 3 
336 1578 1577 1 
337 1578 2324 3 
338 2045 2046 1 
339 1806 1578 3 
340 1806 1805 1 
341 1806 2324 3 
342 2035 2036 1 
343 3068 3564 3 
344 3068 3067 1 
345 3068 3814 3 
346 3848 3847 1 
347 3324 3848 3 
348 3552 3586 3 
349 3552 3551 1 
350 3552 3562 3 
351 3586 3072 3 
352 3586 3585 1 
353 3072 3552 3 
354 3072 3071 1 
355 3072 3562 3 
356 3562 3586 3 
357 3562 3561 1 
358 3306 3558 3 
359 3306 3305 1 
360 3306 3574 3 
361 4066 3306 3 
362 4066 4065 1 
363 4073 4074 1 
364 4816 4310 3 
365 4063 4064 1 
366 4768 4767 1 
367 4568 4768 3 
368 5069 5070 1 
369 73 74 1 
370 5317 5318 1 
371 74 5816 3 
372 5043 5044 1 
373 5043 5317 2 
374 5315 5316 1 
375 5551 6049 2 
376 300 76 3 
377 300 299 1 
378 300 324 3 
379 6027 6028 1 
380 6027 6079 2 
381 76 562 3 
382 76 75 1 
383 324 76 3 
384 324 323 1 
385 324 562 3 
386 103 104 1 
387 6096 6076 3 
388 104 6096 3 
389 104 6028 3 
390 315 6057 2 
391 83 307 2 
392 68 1076 3 
393 68 67 1 
394 826 68 3 
395 826 825 1 
396 1076 826 3 
397 1076 1075 1 
398 822 336 3 
399 336 335 1 
400 336 316 3 
401 316 315 1 
402 316 822 3 
403 313 559 2 
404 1078 1560 3 
405 828 1832 3 
406 828 827 1 
407 1832 1074 3 
408 1832 1831 1 
409 1341 1342 1 
410 1341 1831 2 
411 827 1095 2 
412 2319 2320 1 
413 817 2319 2 
414 2046 2312 3 
415 2046 2582 3 
416 2582 2824 3 
417 2323 2557 2 
418 2557 2558 1 
419 1599 2831 2 
420 2831 2832 1 
421 2824 3038 3 
422 2806 2568 3 
423 2568 2567 1 
424 2805 2806 1 
425 3619 3620 1 
426 3297 3619 2 
427 3323 3324 1 
428 4074 3802 3 
429 3801 4071 2 
430 4853 4854 1 
431 4297 4298 1 
432 5573 5574 1 
433 5051 5573 2 
434 5052 5051 1 
435 5577 5578 1 
436 5577 5829 2 
437 91 5327 2 
438 6095 6096 1 
439 1083 1084 1 
440 1083 1563 2 
441 843 844 1 
442 1574 1586 3 
443 1574 1860 3 
444 1814 596 3 
445 1814 1813 1 
446 1336 1860 3 
447 1336 1596 3 
448 1336 1342 3 
449 1596 1595 1 
450 1092 1814 3 
451 1092 1091 1 
452 1092 1102 3 
453 1586 1585 1 
454 1102 596 3 
455 1102 1101 1 
456 1102 1814 3 
457 1062 1061 1 
458 2077 2078 1 
459 2063 2064 1 
460 2816 2082 3 
461 2560 2559 1 
462 2832 2560 3 
463 3343 3344 1 
464 3343 3353 2 
465 4337 4338 1 
466 3111 3112 1 
467 3591 3592 1 
468 4577 4578 1 
469 4604 4603 1 
470 5346 4604 3 
471 5345 5346 1 
472 5079 5345 2 
473 5079 5080 1 
474 5094 5093 1 
475 5102 5094 3 
476 4339 4340 1 
477 5090 5052 3 
478 6104 92 3 
479 92 91 1 
480 5637 5638 1 
481 115 857 2 
482 6125 6126 1 
483 1091 1103 2 
484 1114 1338 3 
485 1114 1113 1 
486 1338 812 3 
487 1338 1337 1 
488 812 1114 3 
489 812 811 1 
490 861 1347 2 
491 2599 2600 1 
492 833 834 1 
493 1573 1574 1 
494 1113 1573 2 
495 847 848 1 
496 847 2077 2 
497 2082 2081 1 
498 3342 2102 3 
499 2102 2101 1 
500 2611 2612 1 
501 2611 3083 2 
502 3091 3335 2 
503 3092 3091 1 
504 3864 3092 3 
505 4105 4106 1 
506 4105 4609 2 
507 3851 3852 1 
508 4355 4603 2 
509 4100 4856 3 
510 4100 4099 1 
511 4876 4875 1 
512 5080 4876 3 
513 4595 5093 2 
514 5115 5116 1 
515 6103 6104 1 
516 5859 5860 1 
517 5801 5802 1 
518 5801 6103 2 
519 858 876 3 
520 858 857 1 
521 876 1350 3 
522 876 875 1 
523 1350 858 3 
524 1350 1349 1 
525 5864 5863 1 
526 362 5864 3 
527 1851 1852 1 
528 1866 2638 3 
529 2638 2637 1 
530 1630 1836 3 
531 1630 1629 1 
532 1836 1606 3 
533 1836 1835 1 
534 2131 2132 1 
535 2131 2135 2 
536 2361 2362 1 
537 3340 2616 3 
538 3340 3339 1 
539 2825 3339 2 
540 2101 2893 2 
541 2826 2862 3 
542 2826 2825 1 
543 2862 3084 3 
544 2862 2861 1 
545 3084 2826 3 
546 3084 3083 1 
547 2363 2861 2 
548 3337 3338 1 
549 2335 2336 1 
550 3884 3883 1 
551 3124 3884 3 
552 3594 3593 1 
553 3366 3594 3 
554 4121 4122 1 
555 4569 4575 2 
556 4591 4592 1 
557 4821 4822 1 
558 5347 5348 1 
559 6109 6110 1 
560 5881 6109 2 
561 361 362 1 
562 905 906 1 
563 1106 1105 1 
564 1356 1106 3 
565 653 1147 2 
566 133 134 1 
567 1105 1135 2 
568 634 1614 3 
569 633 634 1 
570 1852 1394 3 
571 1606 1630 3 
572 1606 1605 1 
573 1393 2123 2 
574 1131 1132 1 
575 1131 1139 2 
576 1642 1641 1 
577 2362 1642 3 
578 2619 2620 1 
579 2619 2853 2 
580 3099 3100 1 
581 3862 3624 3 
582 3372 3910 3 
583 3910 3909 1 
584 3624 3623 1 
585 3375 3883 2 
586 3371 3372 1 
587 4152 4151 1 
588 4628 4646 3 
589 4628 4627 1 
590 4629 4630 1 
591 4629 5635 2 
592 5635 5636 1 
593 5909 5910 1 
594 147 5867 2 
595 6110 114 3 
596 114 113 1 
597 5858 5857 1 
598 5598 5858 3 
599 6121 6122 1 
600 1380 142 3 
601 142 141 1 
602 1610 140 3 
603 1134 1136 3 
604 414 1376 3 
605 1376 1375 1 
606 601 602 1 
607 1623 1624 1 
608 1137 1138 1 
609 1137 1375 2 
610 1869 1870 1 
611 2625 2647 2 
612 2371 2372 1 
613 3143 3641 2 
614 4116 3614 3 
615 5381 5382 1 
616 5624 5128 3 
617 5624 5623 1 
618 5916 5624 3 
619 5916 5915 1 
620 5128 5916 3 
621 5128 5127 1 
622 5871 5872 1 
623 6151 6152 1 
624 141 143 2 
625 1133 1134 1 
626 1650 1649 1 
627 1143 1144 1 
628 413 1429 2 
629 413 414 1 
630 1429 1430 1 
631 621 622 1 
632 1624 1898 3 
633 887 888 1 
634 887 1655 2 
635 1395 1396 1 
636 1395 1649 2 
637 1378 1377 1 
638 2374 2174 3 
639 2374 2373 1 
640 2152 2374 3 
641 2152 2151 1 
642 2174 2152 3 
643 2174 2173 1 
644 2621 2622 1 
645 1895 2401 2 
646 2647 2648 1 
647 2648 2662 3 
648 2401 2402 1 
649 2872 2871 1 
650 2402 2872 3 
651 3389 3390 1 
652 3389 4659 2 
653 4660 4659 1 
654 3892 4660 3 
655 3613 4633 2 
656 3614 3613 1 
657 4884 4644 3 
658 4884 4883 1 
659 5895 5896 1 
660 5623 5895 2 
661 5617 5618 1 
662 5411 6153 2 
663 6153 6154 1 
664 642 144 3 
665 642 641 1 
666 642 6148 3 
667 6148 416 3 
668 6148 6147 1 
669 416 144 3 
670 416 415 1 
671 416 642 3 
672 144 6148 3 
673 144 143 1 
674 145 157 2 
675 151 152 1 
676 151 641 2 
677 1937 1938 1 
678 1176 2130 3 
679 1176 1175 1 
680 1176 1644 3 
681 940 2130 3 
682 940 939 1 
683 940 1176 3 
684 2130 1644 3 
685 2130 2129 1 
686 1656 1655 1 
687 2907 2908 1 
688 2871 2907 2 
689 2656 2934 3 
690 2656 2655 1 
691 2934 3174 3 
692 2934 2933 1 
693 2889 2890 1 
694 2889 3681 2 
695 3707 3708 1 
696 4412 4411 1 
697 4153 4154 1 
698 3678 4136 3 
699 3678 3677 1 
700 3916 3678 3 
701 3916 3915 1 
702 4901 4902 1 
703 3677 4149 2 
704 3377 3378 1 
705 4922 4196 3 
706 4922 4948 3 
707 4196 4195 1 
708 4910 4922 3 
709 4908 4948 3 
710 4877 4931 2 
711 4631 4899 2 
712 4626 4948 3 
713 4653 4654 1 
714 4653 5147 2 
715 5394 4678 3 
716 4878 4400 3 
717 4878 4877 1 
718 4400 4888 3 
719 4400 4399 1 
720 4919 5423 2 
721 4678 4677 1 
722 4389 5125 2 
723 4888 4878 3 
724 4888 4887 1 
725 5125 5126 1 
726 5666 4664 3 
727 5666 5665 1 
728 5897 6155 2 
729 5412 378 3 
730 5412 5411 1 
731 5412 6156 3 
732 112 378 3 
733 112 111 1 
734 112 5412 3 
735 378 6156 3 
736 378 377 1 
737 6156 112 3 
738 6156 6155 1 
739 111 5391 2 
740 415 421 2 
741 1163 1164 1 
742 1431 1432 1 
743 2175 2176 1 
744 2197 2198 1 
745 2691 2692 1 
746 2403 2404 1 
747 2663 2664 1 
748 2663 2683 2 
749 3631 3679 2 
750 3631 3632 1 
751 3679 3680 1 
752 2655 3151 2 
753 3682 3681 1 
754 3632 3682 3 
755 4149 4150 1 
756 4173 4174 1 
757 4165 4166 1 
758 4430 4168 3 
759 4430 4429 1 
760 4430 4674 3 
761 4443 4444 1 
762 4428 4674 3 
763 4428 4427 1 
764 4428 4430 3 
765 4674 4168 3 
766 4674 4673 1 
767 4168 4428 3 
768 4168 4167 1 
769 4401 4402 1 
770 5893 5894 1 
771 4700 4699 1 
772 4195 5155 2 
773 4911 4912 1 
774 4929 4930 1 
775 4661 4662 1 
776 4661 4929 2 
777 5446 5186 3 
778 5446 5445 1 
779 5174 5446 3 
780 5174 5173 1 
781 5185 5447 2 
782 5447 5448 1 
783 430 914 3 
784 430 429 1 
785 674 430 3 
786 674 673 1 
787 914 674 3 
788 914 913 1 
789 163 6181 2 
790 673 951 2 
791 177 1189 2 
792 1189 1190 1 
793 694 693 1 
794 447 448 1 
795 425 447 2 
796 682 672 3 
797 682 681 1 
798 682 710 3 
799 710 936 3 
800 710 709 1 
801 936 682 3 
802 936 935 1 
803 672 936 3 
804 672 671 1 
805 672 710 3 
806 692 702 3 
807 692 691 1 
808 692 952 3 
809 932 426 3 
810 426 425 1 
811 921 922 1 
812 671 921 2 
813 1208 1182 3 
814 1208 1207 1 
815 1681 1682 1 
816 1181 1191 2 
817 1435 1436 1 
818 1435 2447 2 
819 1886 1885 1 
820 2394 1886 3 
821 2185 2186 1 
822 2185 2193 2 
823 2393 2394 1 
824 2684 2683 1 
825 2902 2684 3 
826 3176 3175 1 
827 2427 2428 1 
828 2929 2930 1 
829 3458 3712 3 
830 3458 3457 1 
831 3712 3928 3 
832 3712 3711 1 
833 3928 3458 3 
834 3928 3927 1 
835 3475 3476 1 
836 4444 4458 3 
837 4458 4457 1 
838 5156 5155 1 
839 4402 5156 3 
840 4912 4700 3 
841 5894 5424 3 
842 5177 5445 2 
843 4699 5173 2 
844 5191 5192 1 
845 5413 5659 2 
846 5414 5682 3 
847 5414 5413 1 
848 5660 5956 3 
849 5660 5659 1 
850 5130 5418 3 
851 5130 5129 1 
852 5130 5682 3 
853 5130 5414 3 
854 5682 5418 3 
855 5682 5681 1 
856 5418 5414 3 
857 5418 5417 1 
858 943 944 1 
859 170 169 1 
860 190 170 3 
861 222 178 3 
862 178 177 1 
863 472 471 1 
864 702 952 3 
865 702 701 1 
866 952 460 3 
867 952 951 1 
868 460 702 3 
869 460 459 1 
870 460 692 3 
871 459 935 2 
872 183 691 2 
873 1453 1665 2 
874 1665 1666 1 
875 1666 1454 3 
876 1454 1453 1 
877 2924 2923 1 
878 3202 2924 3 
879 3421 3422 1 
880 3421 3711 2 
881 3422 3702 3 
882 3457 3683 2 
883 3702 3701 1 
884 3661 3927 2 
885 3683 3684 1 
886 4668 4426 3 
887 4668 4667 1 
888 4426 3662 3 
889 4426 4425 1 
890 3662 4668 3 
891 3662 3661 1 
892 4961 4962 1 
893 4423 4424 1 
894 4423 4961 2 
895 3947 4709 2 
896 4683 4945 2 
897 4945 4946 1 
898 5189 5190 1 
899 5189 5201 2 
900 5674 5936 3 
901 5936 5935 1 
902 5415 5416 1 
903 5415 5673 2 
904 5673 5674 1 
905 5675 5676 1 
906 5425 5426 1 
907 5918 5917 1 
908 424 423 1 
909 6184 5918 3 
910 423 5933 2 
911 5206 5964 3 
912 5206 5205 1 
913 5206 5938 3 
914 6174 5206 3 
915 6174 6173 1 
916 5964 6174 3 
917 5964 5963 1 
918 5938 5964 3 
919 5938 5937 1 
920 5938 6174 3 
921 195 196 1 
922 5967 6173 2 
923 194 193 1 
924 196 194 3 
925 451 452 1 
926 6195 6196 1 
927 216 472 3 
928 221 222 1 
929 1725 1726 1 
930 1720 1719 1 
931 1964 1720 3 
932 1964 1963 1 
933 2217 2218 1 
934 2724 2000 3 
935 2724 2723 1 
936 3201 3202 1 
937 3946 3450 3 
938 3946 3945 1 
939 3958 3946 3 
940 3958 3957 1 
941 3450 3958 3 
942 3450 3449 1 
943 3945 4671 2 
944 4201 4202 1 
945 3701 3975 2 
946 4450 4449 1 
947 3975 3976 1 
948 4164 4450 3 
949 3961 3962 1 
950 3961 4435 2 
951 4435 4436 1 
952 4681 4682 1 
953 4681 4715 2 
954 3686 4694 3 
955 3686 3685 1 
956 4162 4684 3 
957 4162 4161 1 
958 4216 4162 3 
959 4216 4215 1 
960 4212 3686 3 
961 4212 4211 1 
962 4215 4437 2 
963 5224 5223 1 
964 5457 5458 1 
965 5463 5937 2 
966 5723 5724 1 
967 5723 6221 2 
968 5678 5677 1 
969 5441 5442 1 
970 5934 5966 3 
971 5934 5933 1 
972 5932 5966 3 
973 5932 5931 1 
974 5932 5934 3 
975 204 5932 3 
976 204 203 1 
977 204 5934 3 
978 5966 204 3 
979 5966 5965 1 
980 465 466 1 
981 198 197 1 
982 209 729 2 
983 461 462 1 
984 8 264 3 
985 8 7 1 
986 264 192 3 
987 264 263 1 
988 1221 1222 1 
989 1220 1219 1 
990 2461 2462 1 
991 2211 2461 2 
992 2456 2212 3 
993 2212 2211 1 
994 2195 2196 1 
995 2195 2207 2 
996 1999 2973 2 
997 2196 2208 3 
998 2196 2702 3 
999 2196 3432 3 
1000 2208 2207 1 
1001 2208 3432 3 
1002 2208 2702 3 
1003 3221 3222 1 
1004 3960 4194 3 
1005 3960 3959 1 
1006 3960 4208 3 
1007 4194 4198 3 
1008 4194 4193 1 
1009 4194 4208 3 
1010 4198 3960 3 
1011 4198 4197 1 
1012 4208 4198 3 
1013 4208 4207 1 
1014 3925 3926 1 
1015 4437 4438 1 
1016 4988 4206 3 
1017 4717 4718 1 
1018 4992 4714 3 
1019 4992 4991 1 
1020 5458 5224 3 
1021 5718 5678 3 
1022 5724 5714 3 
1023 5714 5713 1 
1024 5717 5718 1 
1025 5464 5463 1 
1026 203 5207 2 
1027 5207 5208 1 
1028 192 8 3 
1029 192 191 1 
1030 462 198 3 
1031 456 218 3 
1032 456 455 1 
1033 218 752 3 
1034 218 217 1 
1035 752 456 3 
1036 752 751 1 
1037 948 1220 3 
1038 1219 1497 2 
1039 2229 2230 1 
1040 1497 1498 1 
1041 1729 2229 2 
1042 1465 1466 1 
1043 1465 1473 2 
1044 1481 2239 2 
1045 1473 1474 1 
1046 1717 1718 1 
1047 2706 2705 1 
1048 2244 2706 3 
1049 1482 1978 3 
1050 1482 1481 1 
1051 1956 1482 3 
1052 1956 1955 1 
1053 1978 1956 3 
1054 1978 1977 1 
1055 2719 3231 2 
1056 2737 2738 1 
1057 2737 3463 2 
1058 3482 3481 1 
1059 3462 3482 3 
1060 3751 3752 1 
1061 4987 4988 1 
1062 4969 4987 2 
1063 4479 4713 2 
1064 4283 4975 2 
1065 5713 6005 2 
1066 6025 6026 1 
1067 1475 1476 1 
1068 1247 1475 2 
1069 1256 1250 3 
1070 1256 1255 1 
1071 2235 2236 1 
1072 725 726 1 
1073 1973 1974 1 
1074 1973 2245 2 
1075 2245 2246 1 
1076 1718 2240 3 
1077 1498 1994 3 
1078 1498 2240 3 
1079 2240 2239 1 
1080 1994 2240 3 
1081 2243 2244 1 
1082 1741 2243 2 
1083 3210 2986 3 
1084 3210 3209 1 
1085 3210 3214 3 
1086 2994 3214 3 
1087 2994 2993 1 
1088 2994 3210 3 
1089 2986 2994 3 
1090 2986 2985 1 
1091 3214 2986 3 
1092 3214 3213 1 
1093 2720 2719 1 
1094 2734 2720 3 
1095 2231 2232 1 
1096 2231 3233 2 
1097 3233 3234 1 
1098 2733 2985 2 
1099 2733 2734 1 
1100 3966 3494 3 
1101 3966 3965 1 
1102 3494 3758 3 
1103 3494 3493 1 
1104 3749 3750 1 
1105 3465 3466 1 
1106 3465 3749 2 
1107 3758 3966 3 
1108 3758 3757 1 
1109 4223 4224 1 
1110 4970 4480 3 
1111 4970 4969 1 
1112 4480 4260 3 
1113 4480 4479 1 
1114 4260 4970 3 
1115 4260 4259 1 
1116 4259 4721 2 
1117 4975 4976 1 
1118 5995 5996 1 
1119 253 254 1 
1120 231 232 1 
1121 231 5973 2 
1122 265 266 1 
1123 6000 5456 3 
1124 6000 5999 1 
1125 2 4998 3 
1126 2 1 1 
1127 2 6000 3 
1128 2 5456 3 
1129 1242 486 3 
1130 486 485 1 
1131 1991 1992 1 
1132 1477 1991 2 
1133 2497 2498 1 
1134 2961 2962 1 
1135 2251 2489 2 
1136 2489 2490 1 
1137 2975 2976 1 
1138 2975 3209 2 
1139 2247 2248 1 
1140 3484 2998 3 
1141 3281 3282 1 
1142 3281 3991 2 
1143 3997 3998 1 
1144 4015 4016 1 
1145 4521 4761 2 
1146 4493 4735 2 
1147 4735 4736 1 
1148 5249 5250 1 
1149 5249 5481 2 
1150 4756 6234 3 
1151 4756 4755 1 
1152 6004 4756 3 
1153 6004 6003 1 
1154 6234 6004 3 
1155 6234 6233 1 
1156 5982 5981 1 
1157 507 508 1 
1158 508 5982 3 
1159 5255 5747 2 
1160 5731 5732 1 
1161 6001 6002 1 
1162 6001 6009 2 
1163 6016 520 3 
1164 6016 6015 1 
1165 520 30 3 
1166 520 519 1 
1167 30 6016 3 
1168 30 29 1 
1169 6042 6041 1 
1170 10 6042 3 
1171 529 530 1 
1172 711 721 2 
1173 721 722 1 
1174 989 990 1 
1175 506 234 3 
1176 234 233 1 
1177 755 1499 2 
1178 515 516 1 
1179 1030 782 3 
1180 1030 1029 1 
1181 1011 1012 1 
1182 1011 1483 2 
1183 297 298 1 
1184 297 1749 2 
1185 742 1236 3 
1186 1236 1235 1 
1187 1786 1008 3 
1188 1786 1785 1 
1189 1280 1786 3 
1190 1280 1279 1 
1191 1508 1280 3 
1192 1508 1507 1 
1193 1508 1786 3 
1194 1008 1280 3 
1195 1008 1007 1 
1196 1008 1508 3 
1197 2007 2008 1 
1198 2001 2002 1 
1199 2001 2485 2 
1200 2011 2012 1 
1201 2011 2741 2 
1202 2002 2486 3 
1203 2005 2007 2 
1204 1265 1266 1 
1205 1265 2273 2 
1206 2486 2485 1 
1207 1723 2253 2 
1208 2741 2742 1 
1209 1517 1518 1 
1210 2253 2254 1 
1211 1767 1768 1 
1212 2254 2280 3 
1213 2254 2786 3 
1214 2010 2258 3 
1215 2010 2009 1 
1216 2258 2270 3 
1217 2258 2257 1 
1218 1234 2010 3 
1219 1234 1233 1 
1220 1234 2258 3 
1221 1234 2270 3 
1222 2270 2010 3 
1223 2270 2269 1 
1224 2280 2279 1 
1225 2280 2492 3 
1226 2280 2786 3 
1227 1518 2492 3 
1228 2049 2050 1 
1229 2536 2535 1 
1230 1996 1995 1 
1231 2496 2536 3 
1232 2746 1996 3 
1233 2276 2018 3 
1234 2276 2275 1 
1235 2018 2508 3 
1236 2018 2017 1 
1237 2018 2754 3 
1238 2503 2504 1 
1239 2503 2739 2 
1240 2508 2276 3 
1241 2508 2507 1 
1242 2508 2754 3 
1243 2754 2276 3 
1244 2754 2753 1 
1245 3223 3224 1 
1246 2509 2510 1 
1247 2279 2509 2 
1248 2269 2981 2 
1249 2481 2482 1 
1250 2481 3017 2 
1251 3017 3018 1 
1252 3002 2778 3 
1253 3002 3001 1 
1254 3002 3006 3 
1255 2778 3006 3 
1256 2778 2777 1 
1257 2992 2778 3 
1258 2992 2991 1 
1259 2992 3002 3 
1260 2513 2514 1 
1261 2017 2513 2 
1262 3006 2992 3 
1263 3006 3005 1 
1264 4257 4258 1 
1265 3522 3521 1 
1266 3767 3768 1 
1267 3004 3030 3 
1268 3004 3003 1 
1269 3759 3767 2 
1270 3030 3756 3 
1271 3030 3029 1 
1272 3253 3254 1 
1273 3764 3778 3 
1274 3770 3769 1 
1275 3778 3777 1 
1276 4017 4285 2 
1277 3502 3501 1 
1278 3505 3765 2 
1279 4237 4238 1 
1280 4497 4498 1 
1281 4786 5046 3 
1282 4289 4497 2 
1283 4757 4758 1 
1284 5046 5045 1 
1285 4724 4723 1 
1286 4758 4724 3 
1287 4999 5237 2 
1288 4495 4496 1 
1289 5259 5260 1 
1290 5259 5737 2 
1291 4515 4741 2 
1292 5502 5501 1 
1293 4777 4778 1 
1294 4777 5273 2 
1295 5508 4994 3 
1296 5014 5502 3 
1297 4994 4993 1 
1298 5020 5758 3 
1299 5020 5019 1 
1300 5758 5276 3 
1301 5758 5757 1 
1302 5276 5020 3 
1303 5276 5275 1 
1304 5499 5500 1 
1305 5499 5505 2 
1306 5505 5506 1 
1307 5240 5020 3 
1308 5240 5239 1 
1309 5240 5276 3 
1310 5240 5758 3 
1311 5741 5742 1 
1312 5741 5751 2 
1313 6232 5472 3 
1314 6232 6231 1 
1315 5734 5472 3 
1316 5734 5733 1 
1317 5734 6232 3 
1318 5472 5748 3 
1319 5472 5471 1 
1320 5748 5734 3 
1321 5748 5747 1 
1322 5748 6232 3 
1323 5751 5752 1 
1324 1006 6224 3 
1325 1006 1005 1 
1326 1006 6008 3 
1327 6224 250 3 
1328 6224 6223 1 
1329 6008 6224 3 
1330 6008 6007 1 
1331 250 6008 3 
1332 250 249 1 
1333 250 1006 3 
1334 490 5754 3 
1335 490 489 1 
1336 5518 490 3 
1337 5518 5517 1 
1338 5754 5518 3 
1339 5754 5753 1 
1340 15 499 2 
1341 12 34 3 
1342 12 11 1 
1343 12 6022 3 
1344 248 12 3 
1345 248 247 1 
1346 1024 1023 1 
1347 268 1024 3 
1348 6242 6010 3 
1349 5766 5765 1 
1350 5766 6242 3 
1351 6010 6009 1 
1352 6010 5766 3 
1353 22 512 3 
1354 22 274 3 
1355 22 6242 3 
1356 274 273 1 
1357 274 6010 3 
1358 6017 6018 1 
1359 267 268 1 
1360 501 502 1 
1361 488 487 1 
1362 26 488 3 
1363 258 38 3 
1364 38 37 1 
1365 473 474 1 
1366 310 309 1 
1367 764 310 3 
1368 778 1042 3 
1369 778 777 1 
1370 526 522 3 
1371 526 1022 3 
1372 502 1022 3 
1373 787 788 1 
1374 787 1029 2 
1375 516 284 3 
1376 284 283 1 
1377 271 272 1 
1378 1276 1030 3 
1379 1276 1275 1 
1380 782 1276 3 
1381 782 781 1 
1382 1746 1034 3 
1383 1746 1745 1 
1384 1746 1780 3 
1385 1746 2020 3 
1386 1780 1034 3 
1387 1780 1779 1 
1388 2020 1780 3 
1389 2020 2019 1 
1390 1747 1757 2 
1391 1757 1758 1 
1392 1766 1748 3 
1393 1766 1765 1 
1394 2023 2293 2 
1395 1724 1766 3 
1396 1724 1723 1 
1397 1748 1724 3 
1398 1748 1747 1 
1399 2300 2299 1 
1400 2534 2300 3 
1401 2770 2294 3 
1402 2770 2769 1 
1403 2266 2770 3 
1404 2266 2265 1 
1405 2294 2266 3 
1406 2294 2293 1 
1407 2274 2266 3 
1408 2274 2273 1 
1409 2274 2294 3 
1410 2274 2770 3 
1411 2740 2739 1 
1412 2286 2285 1 
1413 1519 2275 2 
1414 2760 2759 1 
1415 2539 2540 1 
1416 2981 2982 1 
1417 2522 2532 3 
1418 2522 2772 3 
1419 2512 2530 3 
1420 2512 2522 3 
1421 2772 2530 3 
1422 2772 2771 1 
1423 3018 2760 3 
1424 3020 2798 3 
1425 3020 3019 1 
1426 3020 3546 3 
1427 3020 3026 3 
1428 3546 3026 3 
1429 3546 3545 1 
1430 2798 3546 3 
1431 2798 2797 1 
1432 3026 2798 3 
1433 3026 3025 1 
1434 4258 3522 3 
1435 3268 2768 3 
1436 3268 3267 1 
1437 2768 2792 3 
1438 2768 2767 1 
1439 2792 3268 3 
1440 2792 2791 1 
1441 3261 3545 2 
1442 2261 2771 2 
1443 3304 3550 3 
1444 3550 3549 1 
1445 3788 2262 3 
1446 3788 3787 1 
1447 2262 3262 3 
1448 2262 2261 1 
1449 2262 2518 3 
1450 2518 3262 3 
1451 2518 2517 1 
1452 2518 3788 3 
1453 3262 3788 3 
1454 3262 3261 1 
1455 3272 3034 3 
1456 3272 3271 1 
1457 3272 3538 3 
1458 3034 3264 3 
1459 3034 3033 1 
1460 3538 3034 3 
1461 3538 3537 1 
1462 3264 3538 3 
1463 3264 3263 1 
1464 3264 3272 3 
1465 3029 4023 2 
1466 3013 4513 2 
1467 4513 4514 1 
1468 4285 4286 1 
1469 3503 3504 1 
1470 3273 3274 1 
1471 3273 3809 2 
1472 3809 3810 1 
1473 3527 3528 1 
1474 3527 3777 2 
1475 3015 3525 2 
1476 4266 4272 3 
1477 4266 4265 1 
1478 4266 4270 3 
1479 4272 4278 3 
1480 4272 4271 1 
1481 4278 4266 3 
1482 4278 4277 1 
1483 4281 4787 2 
1484 4270 4272 3 
1485 4270 4269 1 
1486 4270 4278 3 
1487 4498 4268 3 
1488 4268 4267 1 
1489 4261 4267 2 
1490 4273 4274 1 
1491 4273 5297 2 
1492 5011 5012 1 
1493 4775 5011 2 
1494 4780 4262 3 
1495 4780 4779 1 
1496 4262 4516 3 
1497 4262 4261 1 
1498 4510 5530 3 
1499 4510 4509 1 
1500 5530 4776 3 
1501 5530 5529 1 
1502 4776 4510 3 
1503 4776 4775 1 
1504 4745 5021 2 
1505 5001 5263 2 
1506 4781 5529 2 
1507 4773 5013 2 
1508 5013 5014 1 
1509 5533 5534 1 
1510 5761 5762 1 
1511 16 6034 3 
1512 16 15 1 
1513 5767 5768 1 
1514 6032 5774 3 
1515 6032 6031 1 
1516 6034 500 3 
1517 6034 6033 1 
1518 5800 5774 3 
1519 5800 5799 1 
1520 5800 6032 3 
1521 512 511 1 
1522 512 274 3 
1523 512 5766 3 
1524 6024 5800 3 
1525 6024 6023 1 
1526 6024 6032 3 
1527 5772 5771 1 
1528 247 5753 2 
1529 6012 5772 3 
1530 6023 6037 2 
1531 1015 1016 1 
1532 6051 6052 1 
1533 11 6051 2 
1534 25 26 1 
1535 514 513 1 
1536 276 776 3 
1537 521 1067 2 
1538 747 748 1 
1539 781 1523 2 
1540 1055 1056 1 
1541 3 747 2 
1542 1034 2020 3 
1543 1034 1033 1 
1544 1040 1274 3 
1545 1040 1039 1 
1546 1040 1534 3 
1547 1274 1018 3 
1548 1274 1273 1 
1549 1018 1040 3 
1550 1018 1017 1 
1551 1018 1534 3 
1552 1534 1274 3 
1553 1534 1533 1 
1554 1528 2062 3 
1555 1528 1527 1 
1556 1528 1802 3 
1557 1760 1536 3 
1558 1760 1759 1 
1559 1802 2062 3 
1560 1802 1801 1 
1561 1284 1528 3 
1562 1284 1283 1 
1563 1284 1802 3 
1564 1268 1760 3 
1565 1268 1267 1 
1566 1512 534 3 
1567 1536 1268 3 
1568 1536 1535 1 
1569 2062 1284 3 
1570 2062 2061 1 
1571 1743 1744 1 
1572 1267 1549 2 
1573 1511 1512 1 
1574 1511 1743 2 
1575 1028 1776 3 
1576 1028 1027 1 
1577 1521 1522 1 
1578 1778 1292 3 
1579 1778 1777 1 
1580 1292 2284 3 
1581 1292 1291 1 
1582 2284 1778 3 
1583 2284 2283 1 
1584 2297 2298 1 
1585 2533 2534 1 
1586 1773 2297 2 
1587 2025 2026 1 
1588 2025 2807 2 
1589 2271 2272 1 
1590 2271 2763 2 
1591 2571 2572 1 
1592 2530 2532 3 
1593 2530 2529 1 
1594 2759 3251 2 
1595 2521 2522 1 
1596 2521 3515 2 
1597 3516 3515 1 
1598 3258 3516 3 
1599 2281 2529 2 
1600 2551 2552 1 
1601 3257 3258 1 
1602 3033 4061 2 
1603 3263 3535 2 
1604 3285 3286 1 
1605 3285 3293 2 
1606 3293 3294 1 
1607 3014 3544 3 
1608 3014 3013 1 
1609 3014 4028 3 
1610 3014 4046 3 
1611 4035 4036 1 
1612 3289 3290 1 
1613 2781 3289 2 
1614 2783 3269 2 
1615 4046 4028 3 
1616 4046 4045 1 
1617 3544 4046 3 
1618 3544 3543 1 
1619 3269 3270 1 
1620 4028 3544 3 
1621 4028 4027 1 
1622 3242 3536 3 
1623 3242 3241 1 
1624 3536 3032 3 
1625 3536 3535 1 
1626 3543 3811 2 
1627 3311 3312 1 
1628 3311 3547 2 
1629 4039 4040 1 
1630 4039 4277 2 
1631 4040 3320 3 
1632 4056 4055 1 
1633 4810 4056 3 
1634 4809 4810 1 
1635 4517 4809 2 
1636 4525 4789 2 
1637 4287 4288 1 
1638 4005 4287 2 
1639 4288 5298 3 
1640 4316 4790 3 
1641 5033 5034 1 
1642 5298 5297 1 
1643 4519 5031 2 
1644 5039 5535 2 
1645 4295 4296 1 
1646 5068 5270 3 
1647 5068 5067 1 
1648 4753 5533 2 
1649 4774 5022 3 
1650 4774 4773 1 
1651 4774 5016 3 
1652 4520 4774 3 
1653 4520 4519 1 
1654 5016 4520 3 
1655 5016 5015 1 
1656 5016 5022 3 
1657 5022 4520 3 
1658 5022 5021 1 
1659 5759 5760 1 
1660 5283 5284 1 
1661 5762 5004 3 
1662 5004 5003 1 
1663 5262 5261 1 
1664 5774 6024 3 
1665 5774 5773 1 
1666 4765 4766 1 
1667 4765 5537 2 
1668 5261 5987 2 
1669 5987 5988 1 
1670 5320 5532 3 
1671 5003 5515 2 
1672 5515 5516 1 
1673 5532 5531 1 
1674 5537 5538 1 
1675 532 531 1 
1676 280 532 3 
1677 273 541 2 
1678 6065 6066 1 
1679 239 240 1 
1680 35 6035 2 
1681 261 531 2 
1682 36 35 1 
1683 1016 550 3 
1684 550 549 1 
1685 2041 2042 1 
1686 275 276 1 
1687 776 775 1 
1688 1067 1068 1 
1689 1035 1036 1 
1690 1035 1329 2 
1691 1329 1330 1 
1692 5803 5804 1 
1693 545 553 2 
1694 281 282 1 
1695 281 785 2 
1696 789 790 1 
1697 557 789 2 
1698 794 290 3 
1699 290 289 1 
1700 1546 1556 3 
1701 1546 1545 1 
1702 1558 1546 3 
1703 1558 1557 1 
1704 289 1759 2 
1705 771 1533 2 
1706 1505 1506 1 
1707 1505 1801 2 
1708 806 1556 3 
1709 806 805 1 
1710 806 1558 3 
1711 806 1546 3 
1712 1556 1558 3 
1713 1556 1555 1 
1714 1305 1306 1 
1715 1305 2325 2 
1716 1321 1322 1 
1717 1321 2545 2 
1718 2545 2546 1 
1719 2295 2296 1 
1720 2572 2808 3 
1721 2318 2040 3 
1722 2318 2317 1 
1723 1544 2318 3 
1724 1544 1543 1 
1725 2282 1784 3 
1726 2282 2281 1 
1727 3252 2282 3 
1728 3252 3251 1 
1729 1784 3252 3 
1730 1784 1783 1 
1731 3291 3299 2 
1732 1783 3035 2 
1733 3041 3042 1 
1734 2795 2796 1 
1735 3069 3070 1 
1736 3070 3796 3 
1737 3070 3294 3 
1738 3560 4062 3 
1739 3560 3578 3 
1740 3309 3310 1 
1741 3031 3309 2 
1742 4062 4061 1 
1743 3578 2782 3 
1744 3294 3796 3 
1745 3294 4062 3 
1746 3796 4062 3 
1747 3032 3242 3 
1748 3032 3031 1 
1749 2782 2781 1 
1750 2782 3070 3 
1751 2782 3560 3 
1752 3284 3048 3 