ITEM: TIMESTEP
71720
ITEM: NUMBER OF ENTRIES
7962
ITEM: BOX BOUNDS pp pp ff
0.0000000000000000e+00 7.2168784000000002e+01
0.0000000000000000e+00 7.2168784000000002e+01
0.0000000000000000e+00 1.2000000000000000e+01
ITEM: ENTRIES index c_1[1] c_1[2] c_1[3]
1 6002 244 3 
2 244 243 1 
3 248 12 3 
4 248 247 1 
5 12 34 3 
6 12 11 1 
7 12 6022 3 
8 6022 248 3 
9 6022 6021 1 
10 34 248 3 
11 34 33 1 
12 34 6022 3 
13 473 525 2 
14 525 526 1 
15 1011 1483 2 
16 748 747 1 
17 6052 748 3 
18 269 270 1 
19 1020 536 3 
20 1020 1019 1 
21 1002 1020 3 
22 1002 1001 1 
23 1002 1758 3 
24 1747 1757 2 
25 3986 3510 3 
26 3986 3985 1 
27 3510 3010 3 
28 3510 3509 1 
29 2777 3787 2 
30 2518 3262 3 
31 2518 2517 1 
32 2518 3788 3 
33 3788 2262 3 
34 3788 3787 1 
35 2262 3262 3 
36 2262 2261 1 
37 2262 2518 3 
38 3985 4257 2 
39 3262 3788 3 
40 3262 3261 1 
41 4257 4258 1 
42 3277 3278 1 
43 3511 3512 1 
44 4271 4743 2 
45 3015 3525 2 
46 3505 3765 2 
47 4245 4529 2 
48 4744 3766 3 
49 4744 4743 1 
50 5238 6246 3 
51 5238 5237 1 
52 6246 4488 3 
53 6246 6245 1 
54 4488 5238 3 
55 4488 4487 1 
56 4736 5244 3 
57 5244 5243 1 
58 4243 4495 2 
59 4999 5237 2 
60 5014 5502 3 
61 5507 5508 1 
62 6224 250 3 
63 6224 6223 1 
64 250 6008 3 
65 250 249 1 
66 250 1006 3 
67 6008 6224 3 
68 6008 6007 1 
69 1006 6224 3 
70 1006 1005 1 
71 1006 6008 3 
72 30 6016 3 
73 30 29 1 
74 30 5516 3 
75 6016 520 3 
76 6016 6015 1 
77 15 499 2 
78 526 522 3 
79 526 1022 3 
80 6051 6052 1 
81 11 6051 2 
82 768 1022 3 
83 502 1022 3 
84 502 516 3 
85 284 283 1 
86 284 502 3 
87 522 521 1 
88 522 768 3 
89 48 516 3 
90 48 284 3 
91 270 522 3 
92 270 768 3 
93 270 526 3 
94 516 284 3 
95 536 1002 3 
96 536 535 1 
97 536 1758 3 
98 1758 1020 3 
99 1758 1757 1 
100 760 1054 3 
101 760 759 1 
102 2298 2526 3 
103 2298 2297 1 
104 2298 2774 3 
105 2773 2774 1 
106 2001 2002 1 
107 2001 2485 2 
108 2753 2773 2 
109 3271 3495 2 
110 3495 3496 1 
111 4246 4526 3 
112 4246 4245 1 
113 4246 4274 3 
114 5264 5534 3 
115 5264 5263 1 
116 4244 4243 1 
117 4735 4736 1 
118 4020 4244 3 
119 29 251 2 
120 17 18 1 
121 252 6012 3 
122 252 251 1 
123 252 5768 3 
124 5768 5772 3 
125 5768 5767 1 
126 5768 6012 3 
127 6012 5772 3 
128 6012 6011 1 
129 5765 6013 2 
130 792 554 3 
131 792 791 1 
132 792 1068 3 
133 546 792 3 
134 546 545 1 
135 546 1068 3 
136 554 546 3 
137 554 553 1 
138 554 1068 3 
139 1042 1244 3 
140 1042 1041 1 
141 759 777 2 
142 2962 3256 3 
143 3256 3255 1 
144 2271 2763 2 
145 3784 3783 1 
146 2532 2772 3 
147 2532 2531 1 
148 2038 2037 1 
149 2530 2532 3 
150 2530 2529 1 
151 2772 2530 3 
152 2772 2771 1 
153 3031 3309 2 
154 4041 4265 2 
155 5024 4518 3 
156 5024 5023 1 
157 4517 4809 2 
158 4525 4789 2 
159 4763 5023 2 
160 5001 5263 2 
161 4019 4020 1 
162 240 5796 3 
163 18 5788 3 
164 5788 5787 1 
165 6030 5540 3 
166 6030 6029 1 
167 5540 542 3 
168 5540 5539 1 
169 5540 5780 3 
170 542 6030 3 
171 542 541 1 
172 5780 542 3 
173 5780 5779 1 
174 5780 6030 3 
175 20 1330 3 
176 1330 1329 1 
177 1536 1268 3 
178 1536 1535 1 
179 1268 1760 3 
180 1268 1267 1 
181 1760 1536 3 
182 1760 1759 1 
183 1278 1268 3 
184 1278 1277 1 
185 1278 1760 3 
186 1278 1536 3 
187 1267 1549 2 
188 794 290 3 
189 794 793 1 
190 290 2290 3 
191 290 289 1 
192 2552 3784 3 
193 1321 2545 2 
194 2545 2546 1 
195 3046 2038 3 
196 3310 3792 3 
197 3310 3309 1 
198 3292 3310 3 
199 3292 3291 1 
200 3792 3292 3 
201 3792 3791 1 
202 4026 3746 3 
203 4026 4036 3 
204 3263 3535 2 
205 4034 4033 1 
206 4044 4034 3 
207 3312 3311 1 
208 3312 3804 3 
209 3804 4052 3 
210 4052 4051 1 
211 4052 3312 3 
212 3306 3558 3 
213 3306 3305 1 
214 3306 3574 3 
215 4066 3306 3 
216 4066 4065 1 
217 4518 4772 3 
218 4518 4517 1 
219 4772 5024 3 
220 4772 4771 1 
221 4531 4553 2 
222 4790 4789 1 
223 4316 4790 3 
224 5002 4754 3 
225 5002 5001 1 
226 5002 5290 3 
227 4746 5002 3 
228 4746 4745 1 
229 4746 5290 3 
230 5805 6043 2 
231 1552 1808 3 
232 1808 1807 1 
233 1301 1569 2 
234 2054 2332 3 
235 2054 2053 1 
236 1571 1781 2 
237 1322 2574 3 
238 1322 1321 1 
239 1322 2328 3 
240 1322 1828 3 
241 3305 3581 2 
242 4554 4553 1 
243 4802 4554 3 
244 4801 4802 1 
245 4567 5331 2 
246 4567 4568 1 
247 4568 4768 3 
248 4768 4767 1 
249 4767 4783 2 
250 5988 5987 1 
251 5034 5988 3 
252 5302 5044 3 
253 5302 5301 1 
254 5542 5820 3 
255 5542 5541 1 
256 5552 5542 3 
257 5552 5551 1 
258 5820 5552 3 
259 5820 5819 1 
260 300 76 3 
261 300 299 1 
262 300 324 3 
263 76 562 3 
264 76 75 1 
265 324 76 3 
266 324 323 1 
267 324 562 3 
268 562 300 3 
269 562 561 1 
270 75 6093 2 
271 59 6055 2 
272 6055 6056 1 
273 1551 1552 1 
274 1333 2307 2 
275 1540 1572 3 
276 1540 1539 1 
277 1334 2054 3 
278 1334 1333 1 
279 1539 1791 2 
280 1314 1313 1 
281 2304 1314 3 
282 2599 2600 1 
283 1799 2069 2 
284 1572 1302 3 
285 1572 1571 1 
286 1302 1540 3 
287 1302 1301 1 
288 1064 1572 3 
289 1064 1063 1 
290 1064 1540 3 
291 1064 1302 3 
292 2291 2353 2 
293 2353 2354 1 
294 3073 2843 2 
295 2277 2547 2 
296 2036 2035 1 
297 2593 3565 2 
298 2810 2036 3 
299 2809 2810 1 
300 2035 3587 2 
301 3859 3860 1 
302 3859 4075 2 
303 2787 3589 2 
304 4291 4587 2 
305 3331 3567 2 
306 3590 3576 3 
307 3590 3589 1 
308 3576 3824 3 
309 3576 3575 1 
310 4058 4292 3 
311 4058 4057 1 
312 4292 3568 3 
313 4292 4291 1 
314 4292 4300 3 
315 4300 4058 3 
316 4300 4299 1 
317 3568 4058 3 
318 3568 3567 1 
319 3568 4300 3 
320 5814 5302 3 
321 5814 5813 1 
322 5044 5814 3 
323 5044 5043 1 
324 5315 5316 1 
325 5819 6083 2 
326 5043 5317 2 
327 5806 6054 3 
328 5806 5805 1 
329 5806 5826 3 
330 5826 6054 3 
331 5826 5825 1 
332 6054 354 3 
333 6054 6053 1 
334 354 5806 3 
335 354 353 1 
336 354 5826 3 
337 826 1076 3 
338 826 825 1 
339 1076 68 3 
340 1076 1075 1 
341 68 826 3 
342 68 67 1 
343 68 610 3 
344 610 1076 3 
345 610 609 1 
346 610 826 3 
347 308 307 1 
348 1560 1078 3 
349 1560 1559 1 
350 1078 844 3 
351 1078 1077 1 
352 844 1560 3 
353 844 843 1 
354 1069 1327 2 
355 1832 1074 3 
356 1832 1831 1 
357 828 1832 3 
358 828 827 1 
359 1074 828 3 
360 1074 1073 1 
361 2581 2582 1 
362 2354 2582 3 
363 2354 3038 3 
364 1790 2058 3 
365 1790 1789 1 
366 1790 2354 3 
367 2058 2306 3 
368 2058 2057 1 
369 2058 3352 3 
370 2046 2312 3 
371 2046 2582 3 
372 3038 3037 1 
373 2582 2824 3 
374 2312 2311 1 
375 2824 3038 3 
376 2306 1790 3 
377 2306 2305 1 
378 2306 3352 3 
379 2070 2069 1 
380 2070 3352 3 
381 1826 2070 3 
382 2793 2811 2 
383 2330 2594 3 
384 2330 2329 1 
385 2594 3056 3 
386 2594 2593 1 
387 2794 3554 3 
388 2794 2793 1 
389 2820 2794 3 
390 2820 2819 1 
391 3056 2330 3 
392 3056 3055 1 
393 3584 3583 1 
394 3596 3584 3 
395 3595 3596 1 
396 3595 4107 2 
397 3848 3830 3 
398 3848 3847 1 
399 3830 3324 3 
400 3830 3829 1 
401 3324 3848 3 
402 3324 3323 1 
403 3822 4572 3 
404 3822 3821 1 
405 3822 4610 3 
406 4815 4816 1 
407 3835 4057 2 
408 4853 4854 1 
409 5090 5052 3 
410 5089 5090 1 
411 6080 544 3 
412 6080 6079 1 
413 544 5564 3 
414 544 543 1 
415 5564 6080 3 
416 5564 5563 1 
417 5559 6053 2 
418 5838 5837 1 
419 5822 5838 3 
420 5821 5822 1 
421 345 575 2 
422 90 116 3 
423 116 115 1 
424 356 308 3 
425 81 82 1 
426 81 563 2 
427 564 563 1 
428 564 840 3 
429 82 564 3 
430 82 840 3 
431 840 839 1 
432 839 1337 2 
433 1637 1638 1 
434 1101 1637 2 
435 1328 1090 3 
436 1328 1327 1 
437 1086 1328 3 
438 1086 1085 1 
439 1090 1086 3 
440 1090 1089 1 
441 841 843 2 
442 595 1107 2 
443 1341 1342 1 
444 1341 1831 2 
445 1083 1563 2 
446 1084 842 3 
447 1084 1083 1 
448 2319 2320 1 
449 817 2319 2 
450 1335 1336 1 
451 1335 1809 2 
452 818 1098 3 
453 818 817 1 
454 1098 2120 3 
455 1098 1097 1 
456 2120 818 3 
457 2120 2119 1 
458 2320 1600 3 
459 2320 2368 3 
460 1810 2090 3 
461 1810 1809 1 
462 3351 3352 1 
463 3037 3095 2 
464 2045 2046 1 
465 2045 3043 2 
466 2816 2082 3 
467 3096 2592 3 
468 3096 3095 1 
469 2072 2071 1 
470 2580 2579 1 
471 1846 2580 3 
472 3847 3829 2 
473 4572 3850 3 
474 4572 4571 1 
475 4610 4572 3 
476 4610 4609 1 
477 3850 3822 3 
478 3850 3849 1 
479 3850 4610 3 
480 4113 4855 2 
481 4087 4093 2 
482 4114 4113 1 
483 4088 5110 3 
484 4088 4087 1 
485 5346 4340 3 
486 5346 5345 1 
487 4604 5346 3 
488 4604 4603 1 
489 4340 4604 3 
490 4340 4339 1 
491 5051 5573 2 
492 5052 5051 1 
493 906 6144 3 
494 906 905 1 
495 5616 906 3 
496 5616 5615 1 
497 115 857 2 
498 1113 1573 2 
499 1573 1574 1 
500 842 1582 3 
501 842 841 1 
502 842 848 3 
503 1336 1860 3 
504 1336 1596 3 
505 1336 1342 3 
506 1574 1586 3 
507 1574 1860 3 
508 1342 1596 3 
509 1342 1860 3 
510 1582 1084 3 
511 1582 1581 1 
512 848 1368 3 
513 848 1586 3 
514 1586 1585 1 
515 1368 1596 3 
516 1596 1595 1 
517 2064 2368 3 
518 2064 2120 3 
519 1812 1810 3 
520 1812 1811 1 
521 1812 2074 3 
522 1812 2090 3 
523 1600 1599 1 
524 1600 2064 3 
525 1600 2368 3 
526 2090 2074 3 
527 2090 2089 1 
528 2074 1810 3 
529 2074 2073 1 
530 2063 2064 1 
531 1811 2623 2 
532 2081 2089 2 
533 2109 2607 2 
534 2082 2081 1 
535 2815 2816 1 
536 2845 2863 2 
537 2357 2358 1 
538 3606 3864 3 
539 3606 3605 1 
540 3864 3092 3 
541 3864 3863 1 
542 3092 3606 3 
543 3092 3091 1 
544 4337 4338 1 
545 4337 4841 2 
546 4117 4118 1 
547 4117 4341 2 
548 4105 4609 2 
549 4570 4842 3 
550 4570 4569 1 
551 4570 4590 3 
552 4570 4608 3 
553 2841 3333 2 
554 4842 4608 3 
555 4842 4841 1 
556 4106 2842 3 
557 4106 4105 1 
558 4106 4350 3 
559 4608 4590 3 
560 4608 4607 1 
561 5360 5120 3 
562 4595 5093 2 
563 4596 4595 1 
564 4600 4596 3 
565 5638 586 3 
566 5638 5637 1 
567 832 5638 3 
568 832 831 1 
569 852 851 1 
570 1394 1870 3 
571 1394 1393 1 
572 1870 1852 3 
573 1870 1869 1 
574 1852 1394 3 
575 1852 1851 1 
576 1836 1606 3 
577 1836 1835 1 
578 1836 2602 3 
579 1606 1630 3 
580 1606 1605 1 
581 2602 1606 3 
582 2602 2601 1 
583 2128 2136 3 
584 2128 2127 1 
585 1630 1836 3 
586 1630 1629 1 
587 1630 2602 3 
588 1849 1850 1 
589 1589 1849 2 
590 1618 2128 3 
591 1618 1617 1 
592 1618 2092 3 
593 1618 2136 3 
594 2136 2092 3 
595 2136 2135 1 
596 1351 2127 2 
597 1617 2855 2 
598 2825 3339 2 
599 2358 2870 3 
600 2869 3117 2 
601 2870 2869 1 
602 2335 3123 2 
603 3593 3863 2 
604 4363 4364 1 
605 3873 4363 2 
606 3591 3592 1 
607 3862 3624 3 
608 3624 3623 1 
609 4590 4842 3 
610 4590 4589 1 
611 2842 4350 3 
612 2842 2841 1 
613 4121 4607 2 
614 3088 2842 3 
615 3088 3087 1 
616 3088 4106 3 
617 4350 3088 3 
618 4350 4349 1 
619 3875 3876 1 
620 3875 4589 2 
621 4100 4856 3 
622 4100 4099 1 
623 4621 4627 2 
624 4332 4100 3 
625 4332 4331 1 
626 4324 4100 3 
627 4324 4323 1 
628 4324 4332 3 
629 4324 4856 3 
630 114 113 1 
631 1080 852 3 
632 5597 5598 1 
633 5597 5637 2 
634 616 654 3 
635 616 615 1 
636 1079 1080 1 
637 1079 1355 2 
638 1610 140 3 
639 1372 1371 1 
640 140 139 1 
641 6125 6126 1 
642 633 634 1 
643 6142 1372 3 
644 2170 2094 3 
645 1590 2376 3 
646 1590 1589 1 
647 2376 1862 3 
648 2376 2375 1 
649 2372 1132 3 
650 2372 2371 1 
651 1132 3134 3 
652 1132 1131 1 
653 2856 1858 3 
654 2856 2855 1 
655 2856 3340 3 
656 2616 2856 3 
657 2616 2615 1 
658 3134 2372 3 
659 3134 3133 1 
660 1868 2116 3 
661 3340 2616 3 
662 3340 3339 1 
663 1858 1857 1 
664 1858 3340 3 
665 1858 2616 3 
666 2116 2115 1 
667 2903 3133 2 
668 2903 2904 1 
669 3844 3380 3 
670 3844 3843 1 
671 3380 3644 3 
672 3380 3379 1 
673 3644 3844 3 
674 3644 3643 1 
675 3910 3909 1 
676 3372 3910 3 
677 3371 3372 1 
678 2336 3884 3 
679 2336 2335 1 
680 2336 3874 3 
681 3124 2336 3 
682 3124 3123 1 
683 3124 3874 3 
684 3874 3884 3 
685 3874 3873 1 
686 3884 3124 3 
687 3884 3883 1 
688 3625 3626 1 
689 3625 3851 2 
690 3626 4370 3 
691 3626 4870 3 
692 3626 4104 3 
693 4104 4870 3 
694 4104 4103 1 
695 4870 4370 3 
696 4870 4869 1 
697 4370 4104 3 
698 4370 4369 1 
699 4383 4889 2 
700 4362 4384 3 
701 4384 4383 1 
702 5832 5831 1 
703 5854 5832 3 
704 5842 5841 1 
705 113 341 2 
706 6120 5842 3 
707 342 102 3 
708 342 341 1 
709 342 878 3 
710 102 6086 3 
711 102 101 1 
712 102 878 3 
713 1356 1106 3 
714 1356 1355 1 
715 1432 1356 3 
716 1432 1431 1 
717 877 5875 2 
718 379 6113 2 
719 1106 1432 3 
720 1106 1105 1 
721 1105 1135 2 
722 1662 1650 3 
723 1650 1649 1 
724 2144 2386 3 
725 2144 2143 1 
726 2386 2138 3 
727 2386 2385 1 
728 1408 2138 3 
729 1408 1407 1 
730 1408 2144 3 
731 1408 2386 3 
732 1407 2169 2 
733 2169 2170 1 
734 2094 2093 1 
735 2362 1642 3 
736 2121 2375 2 
737 1642 1641 1 
738 2622 1364 3 
739 2622 2621 1 
740 1670 1364 3 
741 1670 1669 1 
742 1670 2622 3 
743 1364 1896 3 
744 1364 1363 1 
745 2904 2390 3 
746 2390 2389 1 
747 1363 3373 2 
748 3370 3369 1 
749 3162 3370 3 
750 3135 3909 2 
751 3135 3136 1 
752 2877 3897 2 
753 3369 3867 2 
754 2878 2877 1 
755 3136 2878 3 
756 4924 3622 3 
757 3622 3621 1 
758 3375 3883 2 
759 3621 4421 2 
760 4103 4115 2 
761 5356 5122 3 
762 5356 5355 1 
763 4120 5356 3 
764 4120 4119 1 
765 5122 4120 3 
766 5122 5121 1 
767 5121 5143 2 
768 5625 5626 1 
769 4371 5625 2 
770 878 6086 3 
771 878 877 1 
772 6086 342 3 
773 6086 6085 1 
774 124 6114 3 
775 124 123 1 
776 124 128 3 
777 6114 390 3 
778 6114 6113 1 
779 128 6114 3 
780 128 127 1 
781 128 390 3 
782 390 124 3 
783 390 389 1 
784 1136 1135 1 
785 1134 1136 3 
786 185 1161 2 
787 1898 1624 3 
788 1898 1897 1 
789 1162 1898 3 
790 1162 1161 1 
791 1624 1162 3 
792 1624 1623 1 
793 1624 1682 3 
794 1682 1162 3 
795 1682 1681 1 
796 1682 1898 3 
797 621 2173 2 
798 1395 1649 2 
799 1909 1910 1 
800 1909 2165 2 
801 1641 2395 2 
802 1896 1670 3 
803 1896 1895 1 
804 1896 2622 3 
805 2648 1938 3 
806 2648 2647 1 
807 1853 1854 1 
808 1853 2155 2 
809 1895 2401 2 
810 3161 4141 2 
811 3161 3162 1 
812 4923 4924 1 
813 3923 4923 2 
814 3389 4659 2 
815 3886 2912 3 
816 2912 2911 1 
817 4412 4154 3 
818 4412 4411 1 
819 3390 4412 3 
820 3390 3389 1 
821 4154 3390 3 
822 4154 4153 1 
823 3916 3678 3 
824 3916 3915 1 
825 3678 4136 3 
826 3678 3677 1 
827 3678 5132 3 
828 5394 4678 3 
829 4678 4677 1 
830 4406 4932 3 
831 4406 4405 1 
832 4932 5410 3 
833 4932 4931 1 
834 4852 4394 3 
835 4852 4851 1 
836 5144 5143 1 
837 4675 4887 2 
838 5154 5144 3 
839 5642 404 3 
840 5642 5641 1 
841 5910 5624 3 
842 5910 5909 1 
843 5910 5916 3 
844 404 5926 3 
845 404 403 1 
846 5926 5642 3 
847 5926 5925 1 
848 5128 5916 3 
849 5128 5127 1 
850 5128 5910 3 
851 5624 5128 3 
852 5624 5623 1 
853 5916 5624 3 
854 5916 5915 1 
855 622 1144 3 
856 622 621 1 
857 1144 1430 3 
858 1144 1143 1 
859 1151 6159 2 
860 2129 2175 2 
861 2156 2392 3 
862 2156 2155 1 
863 1938 2662 3 
864 1938 1937 1 
865 2662 2648 3 
866 2662 2661 1 
867 2391 2631 2 
868 2898 2652 3 
869 2898 2897 1 
870 2154 2898 3 
871 2154 2153 1 
872 2652 2154 3 
873 2652 2651 1 
874 2655 3151 2 
875 3163 3173 2 
876 3177 3178 1 
877 4142 3900 3 
878 4142 4141 1 
879 3900 2914 3 
880 3900 3899 1 
881 2914 4142 3 
882 2914 2913 1 
883 3677 4149 2 
884 3663 3899 2 
885 5409 5427 2 
886 5410 4406 3 
887 5410 5409 1 
888 5153 5154 1 
889 4893 5153 2 
890 3893 3894 1 
891 3893 4865 2 
892 403 5389 2 
893 5623 5895 2 
894 122 5392 3 
895 122 121 1 
896 121 123 2 
897 171 5649 2 
898 1174 1208 3 
899 1174 1173 1 
900 1174 1182 3 
901 937 1207 2 
902 937 938 1 
903 954 1208 3 
904 954 953 1 
905 954 1174 3 
906 1182 954 3 
907 1182 1181 1 
908 1700 1922 3 
909 1700 1699 1 
910 1922 1894 3 
911 1922 1921 1 
912 1166 1700 3 
913 1166 1165 1 
914 1166 1922 3 
915 1166 1894 3 
916 1894 1700 3 
917 1894 1893 1 
918 1181 1191 2 
919 1902 1936 3 
920 1902 1901 1 
921 2200 1902 3 
922 2200 2199 1 
923 2200 2404 3 
924 1936 2200 3 
925 1936 1935 1 
926 1936 2404 3 
927 2404 1902 3 
928 2404 2403 1 
929 2448 2447 1 
930 2663 2683 2 
931 2664 3170 3 
932 2664 2663 1 
933 2908 2664 3 
934 2908 2907 1 
935 3170 2908 3 
936 3170 3169 1 
937 2656 2934 3 
938 2656 2655 1 
939 2934 3174 3 
940 2934 2933 1 
941 3174 2656 3 
942 3174 3173 1 
943 2641 3177 2 
944 3164 3666 3 
945 3164 3163 1 
946 3164 3388 3 
947 3388 3906 3 
948 3388 3387 1 
949 3388 3666 3 
950 3906 3164 3 
951 3906 3905 1 
952 3666 3906 3 
953 3666 3665 1 
954 3413 3669 2 
955 3377 3378 1 
956 5168 4894 3 
957 5168 5167 1 
958 5168 5618 3 
959 4894 4652 3 
960 4894 4893 1 
961 4894 5618 3 
962 5618 4652 3 
963 5618 5617 1 
964 4652 5168 3 
965 4652 4651 1 
966 5440 5940 3 
967 5440 5439 1 
968 5440 5914 3 
969 5162 5940 3 
970 5162 5161 1 
971 5162 5440 3 
972 5914 5162 3 
973 5914 5913 1 
974 5940 5914 3 
975 5940 5939 1 
976 6138 5406 3 
977 5413 5659 2 
978 5390 5654 3 
979 5390 5389 1 
980 5692 5390 3 
981 5692 5691 1 
982 5654 5692 3 
983 5654 5653 1 
984 5896 5378 3 
985 5896 5895 1 
986 5397 5885 2 
987 420 5650 3 
988 420 419 1 
989 5398 420 3 
990 5398 5397 1 
991 5398 5650 3 
992 5398 5658 3 
993 5650 5658 3 
994 5650 5649 1 
995 5658 420 3 
996 5658 5657 1 
997 172 914 3 
998 172 171 1 
999 172 430 3 
1000 172 674 3 
1001 689 893 2 
1002 430 914 3 
1003 430 429 1 
1004 674 430 3 
1005 674 673 1 
1006 914 674 3 
1007 914 913 1 
1008 183 691 2 
1009 673 951 2 
1010 405 913 2 
1011 440 439 1 
1012 6214 440 3 
1013 657 683 2 
1014 1454 1453 1 
1015 1666 1454 3 
1016 1435 1436 1 
1017 1435 2447 2 
1018 2431 2437 2 
1019 1935 2927 2 
1020 2927 2928 1 
1021 2197 2691 2 
1022 2198 2684 3 
1023 2198 2197 1 
1024 2722 2422 3 
1025 2722 2721 1 
1026 2688 2722 3 
1027 2688 2687 1 
1028 2422 2688 3 
1029 2422 2421 1 
1030 2192 3186 3 
1031 2192 2191 1 
1032 2192 2674 3 
1033 2670 2192 3 
1034 2670 2669 1 
1035 2670 2674 3 
1036 3186 2670 3 
1037 3186 3185 1 
1038 2674 3186 3 
1039 2674 2673 1 
1040 2900 2899 1 
1041 3674 3673 1 
1042 3438 3414 3 
1043 3438 3437 1 
1044 3707 3708 1 
1045 4443 4444 1 
1046 5160 4414 3 
1047 5160 5159 1 
1048 4414 4914 3 
1049 4414 4413 1 
1050 5166 4390 3 
1051 5166 5165 1 
1052 3938 4414 3 
1053 3938 3937 1 
1054 3938 5160 3 
1055 5416 5166 3 
1056 5416 5415 1 
1057 4390 5370 3 
1058 4390 4389 1 
1059 4390 5416 3 
1060 5370 5166 3 
1061 5370 5369 1 
1062 5370 5416 3 
1063 5419 5939 2 
1064 5437 5913 2 
1065 5183 5453 2 
1066 5420 5886 3 
1067 5420 5419 1 
1068 5886 5698 3 
1069 5886 5885 1 
1070 5660 5956 3 
1071 5660 5659 1 
1072 5956 5444 3 
1073 5956 5955 1 
1074 5444 5660 3 
1075 5444 5443 1 
1076 163 6181 2 
1077 1178 894 3 
1078 1178 1177 1 
1079 670 1178 3 
1080 670 669 1 
1081 894 670 3 
1082 894 893 1 
1083 197 449 2 
1084 193 6195 2 
1085 5994 730 3 
1086 196 194 3 
1087 194 193 1 
1088 6195 6196 1 
1089 5993 5994 1 
1090 451 452 1 
1091 451 5993 2 
1092 406 405 1 
1093 6196 406 3 
1094 687 1179 2 
1095 214 213 1 
1096 452 214 3 
1097 672 936 3 
1098 672 671 1 
1099 672 710 3 
1100 682 672 3 
1101 682 681 1 
1102 682 710 3 
1103 710 936 3 
1104 710 709 1 
1105 936 682 3 
1106 936 935 1 
1107 726 1214 3 
1108 726 725 1 
1109 726 1226 3 
1110 1214 2204 3 
1111 1214 1213 1 
1112 1226 1214 3 
1113 1226 1225 1 
1114 1226 2204 3 
1115 2204 726 3 
1116 2204 2203 1 
1117 681 961 2 
1118 671 921 2 
1119 1663 1664 1 
1120 1663 2721 2 
1121 3976 3460 3 
1122 3460 3459 1 
1123 3719 3931 2 
1124 4220 4672 3 
1125 4672 4671 1 
1126 3429 3693 2 
1127 4166 3430 3 
1128 4166 4165 1 
1129 4448 4210 3 
1130 4448 4447 1 
1131 4698 4448 3 
1132 4698 4697 1 
1133 4914 3938 3 
1134 4914 4913 1 
1135 4914 5160 3 
1136 4913 5165 2 
1137 5945 5946 1 
1138 5945 5953 2 
1139 6218 424 3 
1140 424 423 1 
1141 6217 6218 1 
1142 693 1177 2 
1143 5960 450 3 
1144 5960 5959 1 
1145 450 6198 3 
1146 450 449 1 
1147 6198 5960 3 
1148 6198 6197 1 
1149 462 198 3 
1150 669 945 2 
1151 694 693 1 
1152 428 694 3 
1153 1180 458 3 
1154 1180 1179 1 
1155 436 1180 3 
1156 436 435 1 
1157 458 436 3 
1158 458 457 1 
1159 177 1189 2 
1160 1189 1190 1 
1161 457 6199 2 
1162 709 1461 2 
1163 1225 1421 2 
1164 1966 1965 1 
1165 2703 4201 2 
1166 3979 3983 2 
1167 2930 3190 3 
1168 3482 4202 3 
1169 3482 3481 1 
1170 3459 3957 2 
1171 4202 3462 3 
1172 4202 4201 1 
1173 4202 4436 3 
1174 2929 2930 1 
1175 3462 3482 3 
1176 3462 3461 1 
1177 3462 4436 3 
1178 3712 3928 3 
1179 3712 3711 1 
1180 3421 3422 1 
1181 3421 3711 2 
1182 3690 3888 3 
1183 3690 3689 1 
1184 3888 3498 3 
1185 3888 3887 1 
1186 3933 3959 2 
1187 3498 3690 3 
1188 3498 3497 1 
1189 4163 4164 1 
1190 4685 4686 1 
1191 4956 3932 3 
1192 4956 4955 1 
1193 3694 4956 3 
1194 3694 3693 1 
1195 3694 3934 3 
1196 3694 3932 3 
1197 3934 4956 3 
1198 3934 3933 1 
1199 3932 3934 3 
1200 3932 3931 1 
1201 4209 5451 2 
1202 4210 4698 3 
1203 4210 4209 1 
1204 5190 4708 3 
1205 5190 5189 1 
1206 4708 4946 3 
1207 4708 4707 1 
1208 4946 5190 3 
1209 4946 4945 1 
1210 5718 5678 3 
1211 5696 5230 3 
1212 5696 5695 1 
1213 5696 6240 3 
1214 6174 5206 3 
1215 6174 6173 1 
1216 5206 5964 3 
1217 5206 5205 1 
1218 5206 5938 3 
1219 5938 5964 3 
1220 5938 5937 1 
1221 5938 6174 3 
1222 5964 6174 3 
1223 5964 5963 1 
1224 5463 5937 2 
1225 198 197 1 
1226 5181 5182 1 
1227 6197 6219 2 
1228 1457 1479 2 
1229 6200 472 3 
1230 6200 6199 1 
1231 1462 1496 3 
1232 1462 1461 1 
1233 1480 1462 3 
1234 1480 1479 1 
1235 216 6200 3 
1236 216 215 1 
1237 216 1714 3 
1238 1422 1496 3 
1239 1422 1421 1 
1240 1422 1480 3 
1241 1422 1462 3 
1242 472 216 3 
1243 472 471 1 
1244 472 1714 3 
1245 1714 6200 3 
1246 1714 1713 1 
1247 1496 1480 3 
1248 1496 1495 1 
1249 1217 1941 2 
1250 1942 1964 3 
1251 1942 1941 1 
1252 1942 2206 3 
1253 1720 1719 1 
1254 1720 2206 3 
1255 1964 1720 3 
1256 1964 1963 1 
1257 1964 2206 3 
1258 1204 1684 3 
1259 1204 1203 1 
1260 1716 1204 3 
1261 1716 1715 1 
1262 2172 1966 3 
1263 3984 2450 3 
1264 3984 3983 1 
1265 3980 3979 1 
1266 3474 3980 3 
1267 2757 3461 2 
1268 3473 3474 1 
1269 3473 4193 2 
1270 3466 3762 3 
1271 3466 3465 1 
1272 4464 3466 3 
1273 4464 4463 1 
1274 4969 4987 2 
1275 3761 5441 2 
1276 5441 5442 1 
1277 5693 5695 2 
1278 465 6239 2 
1279 5678 5677 1 
1280 5459 5469 2 
1281 466 5464 3 
1282 466 465 1 
1283 5464 232 3 
1284 5464 5463 1 
1285 705 6191 2 
1286 4960 4959 1 
1287 5182 4960 3 
1288 228 6220 3 
1289 6220 6219 1 
1290 731 749 2 
1291 699 1215 2 
1292 975 1467 2 
1293 1467 1468 1 
1294 1468 1726 3 
1295 1993 1994 1 
1296 1993 2729 2 
1297 1459 1709 2 
1298 2730 2236 3 
1299 2730 2729 1 
1300 2236 1736 3 
1301 2236 2235 1 
1302 1736 2730 3 
1303 1736 1735 1 
1304 1486 2236 3 
1305 1486 1485 1 
1306 1486 2730 3 
1307 1486 1736 3 
1308 1982 1460 3 
1309 1982 1981 1 
1310 1982 2462 3 
1311 1460 2216 3 
1312 1460 1459 1 
1313 1460 2462 3 
1314 2216 1982 3 
1315 2216 2215 1 
1316 2216 2230 3 
1317 2230 2462 3 
1318 2232 2460 3 
1319 2232 2231 1 
1320 2232 2700 3 
1321 2232 3472 3 
1322 4970 4260 3 
1323 4970 4969 1 
1324 3774 4260 3 
1325 3774 3773 1 
1326 3774 4970 3 
1327 3774 4480 3 
1328 3762 4464 3 
1329 3762 3761 1 
1330 4260 4480 3 
1331 4260 4259 1 
1332 4480 4970 3 
1333 4480 4479 1 
1334 4446 4226 3 
1335 4446 4445 1 
1336 4203 4205 2 
1337 4016 4232 3 
1338 5510 3752 3 
1339 5510 5509 1 
1340 3752 4978 3 
1341 3752 3751 1 
1342 4978 5510 3 
1343 4978 4977 1 
1344 5246 5248 3 
1345 5248 5247 1 
1346 232 466 3 
1347 232 231 1 
1348 231 5973 2 
1349 971 972 1 
1350 987 988 1 
1351 987 6229 2 
1352 972 1004 3 
1353 1004 750 3 
1354 1004 1003 1 
1355 734 1004 3 
1356 734 733 1 
1357 734 972 3 
1358 750 734 3 
1359 750 749 1 
1360 476 972 3 
1361 476 750 3 
1362 260 259 1 
1363 260 476 3 
1364 988 260 3 
1365 5 733 2 
1366 966 738 3 
1367 966 965 1 
1368 966 990 3 
1369 990 738 3 
1370 990 989 1 
1371 990 1196 3 
1372 1253 1981 2 
1373 1238 1237 1 
1374 1945 2227 2 
1375 1538 2506 3 
1376 2506 2505 1 
1377 2515 2747 2 
1378 3951 4463 2 
1379 4479 4713 2 
1380 3773 4747 2 
1381 4259 4721 2 
1382 5027 5028 1 
1383 3453 3743 2 
1384 4232 4231 1 
1385 4231 4751 2 
1386 4722 4990 3 
1387 4722 4721 1 
1388 4235 4236 1 
1389 4235 4461 2 
1390 4284 5222 3 
1391 4284 4283 1 
1392 4284 4722 3 
1393 4284 4990 3 
1394 4733 4734 1 
1395 4733 5025 2 
1396 5233 5509 2 
1397 4252 4508 3 
1398 202 5468 3 
1399 202 201 1 
1400 202 5992 3 
1401 202 230 3 
1402 5468 230 3 
1403 5468 5467 1 
1404 230 5992 3 
1405 230 229 1 
1406 5992 5468 3 
1407 5992 5991 1 
1408 5247 5497 2 
1409 13 229 2 
1410 5497 5498 1 
1411 226 236 3 
1412 226 225 1 
1413 5974 226 3 
1414 5974 5973 1 
1415 242 5974 3 
1416 242 226 3 
1417 242 241 1 
1418 236 242 3 
1419 236 5974 3 
1420 236 235 1 
1421 5998 5997 1 
1422 5998 6216 3 
1423 5498 5726 3 
1424 5498 5998 3 
1425 220 5710 3 
1426 220 5726 3 
1427 220 5498 3 
1428 504 6238 3 
1429 504 503 1 
1430 6250 504 3 
1431 6250 6249 1 
1432 6238 6250 3 
1433 6238 6237 1 
1434 438 6238 3 
1435 438 437 1 
1436 438 504 3 
1437 438 6250 3 
1438 5982 508 3 
1439 5982 5981 1 
1440 5731 5732 1 
1441 46 5730 3 
1442 5730 5729 1 
1443 243 475 2 
1444 475 476 1 
1445 233 269 2 
1446 753 754 1 
1447 259 753 2 
1448 506 234 3 
1449 234 233 1 
1450 723 989 2 
1451 6 5 1 
1452 754 756 3 
1453 469 737 2 
1454 2248 3012 3 
1455 2248 2247 1 
1456 2248 3448 3 
1457 3448 3012 3 
1458 3448 3447 1 
1459 3512 3526 3 
1460 3526 3525 1 
1461 3016 3798 3 
1462 3016 3015 1 
1463 3812 3016 3 
1464 3812 3811 1 
1465 3798 3812 3 
1466 3798 3797 1 
1467 4530 4462 3 
1468 4530 4529 1 
1469 4002 4462 3 
1470 4002 4001 1 
1471 4002 4530 3 
1472 4002 4748 3 
1473 4748 4530 3 
1474 4748 4747 1 
1475 4462 4748 3 
1476 4462 4461 1 
1477 5222 4722 3 
1478 5222 5221 1 
1479 4757 4758 1 
1480 4223 4224 1 
1481 4223 4757 2 
1482 4990 5222 3 
1483 4990 4989 1 
1484 5502 5501 1 
1485 5480 14 3 
1486 5480 5479 1 
1487 5732 266 3 
1488 6228 5480 3 
1489 6228 6227 1 
1490 6226 5480 3 
1491 6226 6225 1 
1492 6226 6228 3 
1493 14 6228 3 
1494 14 13 1 
1495 14 6226 3 
1496 266 265 1 
1497 5981 6007 2 
1498 249 5517 2 
1499 310 309 1 
1500 764 310 3 
1501 489 519 2 
1502 21 22 1 
1503 21 511 2 
1504 6065 6066 1 
1505 5471 6065 2 
1506 1239 1240 1 
1507 268 1024 3 
1508 1024 1023 1 
1509 485 1239 2 
1510 515 516 1 
1511 515 1263 2 
1512 509 1243 2 
1513 510 766 3 
1514 510 509 1 
1515 492 766 3 
1516 492 491 1 
1517 492 510 3 
1518 766 470 3 
1519 766 765 1 
1520 470 510 3 
1521 470 469 1 
1522 470 492 3 
1523 1750 1500 3 
1524 1750 1749 1 
1525 1270 1269 1 
1526 1500 1524 3 
1527 1500 1499 1 
1528 1524 1750 3 
1529 1524 1523 1 
1530 974 714 3 
1531 974 973 1 
1532 974 1264 3 
1533 974 1756 3 
1534 3 747 2 
1535 4 1500 3 
1536 4 3 1 
1537 4 1750 3 
1538 4 1524 3 
1539 1013 1241 2 
1540 1264 1756 3 
1541 1264 1263 1 
1542 1756 714 3 
1543 1756 1755 1 
1544 1770 1270 3 
1545 714 1264 3 
1546 714 713 1 
1547 722 1510 3 
1548 722 721 1 
1549 1744 2024 3 
1550 1222 1228 3 
1551 1222 1221 1 
1552 1014 1256 3 
1553 1014 1013 1 
1554 1525 1765 2 
1555 1279 2019 2 
1556 1724 1748 3 
1557 1724 1723 1 
1558 1724 2012 3 
1559 1748 1766 3 
1560 1748 1747 1 
1561 2012 1748 3 
1562 2012 2011 1 
1563 1766 1724 3 
1564 1766 1765 1 
1565 1766 2012 3 
1566 1511 1512 1 
1567 1511 1743 2 
1568 981 1235 2 
1569 981 982 1 
1570 1743 1744 1 
1571 1786 1008 3 
1572 1786 1785 1 
1573 1280 1786 3 
1574 1280 1279 1 
1575 1508 1280 3 
1576 1508 1507 1 
1577 1508 1786 3 
1578 1008 1280 3 
1579 1008 1007 1 
1580 1008 1508 3 
1581 1723 2253 2 
1582 2253 2254 1 
1583 1751 2769 2 
1584 1512 534 3 
1585 1507 2225 2 
1586 1752 1751 1 
1587 2742 1752 3 
1588 2280 2279 1 
1589 2280 2492 3 
1590 2280 2786 3 
1591 2254 2280 3 
1592 2254 2786 3 
1593 1518 2492 3 
1594 1518 2254 3 
1595 1518 2786 3 
1596 2536 2535 1 
1597 2279 2509 2 
1598 2535 3001 2 
1599 2507 2755 2 
1600 2792 3268 3 
1601 2792 2791 1 
1602 2496 2536 3 
1603 2791 3267 2 
1604 3010 3986 3 
1605 3010 3009 1 
1606 2251 2489 2 
1607 3002 2778 3 
1608 3002 3001 1 
1609 3002 3006 3 
1610 2778 3006 3 
1611 2778 2777 1 
1612 3006 2992 3 
1613 3006 3005 1 
1614 2746 1996 3 
1615 1996 1995 1 
1616 2992 2778 3 
1617 2992 2991 1 
1618 2992 3002 3 
1619 3261 3545 2 
1620 3003 3027 2 
1621 2798 3546 3 
1622 2798 2797 1 
1623 3004 3030 3 
1624 3004 3003 1 
1625 3030 3756 3 
1626 3030 3029 1 
1627 3030 3278 3 
1628 4024 4023 1 
1629 3270 4024 3 
1630 3278 4258 3 
1631 3278 3522 3 
1632 3522 3521 1 
1633 4258 3522 3 
1634 3756 3004 3 
1635 3756 3755 1 
1636 3543 3811 2 
1637 4018 3506 3 
1638 4018 4017 1 
1639 4018 4726 3 
1640 3506 4504 3 
1641 3506 3505 1 
1642 4504 4018 3 
1643 4504 4503 1 
1644 4504 4726 3 
1645 4017 4285 2 
1646 4749 4750 1 
1647 4749 5045 2 
1648 4290 4744 3 
1649 4290 4289 1 
1650 4289 4497 2 
1651 4742 4762 3 
1652 4742 4741 1 
1653 4742 5984 3 
1654 5763 6245 2 
1655 3772 4778 3 
1656 3772 3771 1 
1657 3772 4996 3 
1658 3772 4496 3 
1659 4996 4778 3 
1660 4996 4995 1 
1661 4496 4996 3 
1662 4496 4495 1 
1663 4778 4496 3 
1664 4778 4777 1 
1665 4994 4993 1 
1666 5508 4994 3 
1667 5013 5014 1 
1668 5015 5519 2 
1669 5759 5760 1 
1670 6019 6225 2 
1671 27 6033 2 
1672 5512 6020 3 
1673 5512 5511 1 
1674 6020 5770 3 
1675 6020 6019 1 
1676 208 207 1 
1677 6034 500 3 
1678 6034 6033 1 
1679 500 16 3 
1680 500 499 1 
1681 5255 5747 2 
1682 5516 6016 3 
1683 5516 5515 1 
1684 520 30 3 
1685 520 519 1 
1686 520 5516 3 
1687 24 474 3 
1688 24 23 1 
1689 24 6018 3 
1690 24 6014 3 
1691 6001 6002 1 
1692 6001 6009 2 
1693 474 6014 3 
1694 474 473 1 
1695 6014 6018 3 
1696 6014 6013 1 
1697 5472 5748 3 
1698 5472 5471 1 
1699 5748 5734 3 
1700 5748 5747 1 
1701 5748 6232 3 
1702 5734 5472 3 
1703 5734 5733 1 
1704 5734 6232 3 
1705 6232 5472 3 
1706 6232 6231 1 
1707 245 1005 2 
1708 6018 474 3 
1709 6018 6017 1 
1710 787 1029 2 
1711 5783 5795 2 
1712 5783 5784 1 
1713 6011 6021 2 
1714 1276 1030 3 
1715 1276 1275 1 
1716 33 501 2 
1717 309 513 2 
1718 763 764 1 
1719 512 511 1 
1720 512 274 3 
1721 512 5766 3 
1722 6010 6009 1 
1723 6010 5766 3 
1724 22 512 3 
1725 22 274 3 
1726 22 6242 3 
1727 501 502 1 
1728 274 273 1 
1729 274 6010 3 
1730 6242 6010 3 
1731 5766 5765 1 
1732 5766 6242 3 
1733 5784 6038 3 
1734 26 256 3 
1735 26 25 1 
1736 285 1275 2 
1737 1030 782 3 
1738 1030 1029 1 
1739 6038 6037 1 
1740 271 763 2 
1741 488 26 3 
1742 488 487 1 
1743 256 488 3 
1744 256 255 1 
1745 1012 782 3 
1746 1012 1011 1 
1747 1012 1030 3 
1748 1012 1276 3 
1749 767 768 1 
1750 767 1043 2 
1751 782 1276 3 
1752 782 781 1 
1753 47 48 1 
1754 47 517 2 
1755 1242 1738 3 
1756 1242 1241 1 
1757 486 1242 3 