ITEM: TIMESTEP
107800
ITEM: NUMBER OF ENTRIES
8232
ITEM: BOX BOUNDS pp pp ff
0.0000000000000000e+00 7.2168784000000002e+01
0.0000000000000000e+00 7.2168784000000002e+01
0.0000000000000000e+00 1.2000000000000000e+01
ITEM: ENTRIES index c_1[1] c_1[2] c_1[3]
1 6022 248 3 
2 6022 6021 1 
3 34 248 3 
4 34 33 1 
5 34 6022 3 
6 12 34 3 
7 12 11 1 
8 12 6022 3 
9 248 12 3 
10 248 247 1 
11 266 265 1 
12 11 6051 2 
13 271 763 2 
14 244 243 1 
15 6002 244 3 
16 763 764 1 
17 711 721 2 
18 1245 1246 1 
19 983 1245 2 
20 1260 722 3 
21 1260 1259 1 
22 1007 1041 2 
23 1747 1757 2 
24 1744 2024 3 
25 3017 3018 1 
26 2481 2482 1 
27 2481 3017 2 
28 2785 2786 1 
29 3018 2760 3 
30 2760 2759 1 
31 2276 2018 3 
32 2276 2275 1 
33 2732 1504 3 
34 2732 2731 1 
35 2732 2762 3 
36 2252 2732 3 
37 2252 2251 1 
38 2252 2762 3 
39 2762 1504 3 
40 2762 2761 1 
41 1504 2252 3 
42 1504 1503 1 
43 2223 3447 2 
44 3262 3788 3 
45 3262 3261 1 
46 2262 3262 3 
47 2262 2261 1 
48 2262 2518 3 
49 2518 3262 3 
50 2518 2517 1 
51 2518 3788 3 
52 3788 2262 3 
53 3788 3787 1 
54 3012 2490 3 
55 3012 3011 1 
56 2490 2248 3 
57 2490 2489 1 
58 2490 3448 3 
59 2248 3012 3 
60 2248 2247 1 
61 2248 3448 3 
62 3448 3012 3 
63 3448 3447 1 
64 2777 3787 2 
65 2516 4004 3 
66 2516 2515 1 
67 4004 3468 3 
68 4004 4003 1 
69 5482 4250 3 
70 5482 5481 1 
71 4750 5482 3 
72 4750 4749 1 
73 4250 4750 3 
74 4250 4249 1 
75 530 208 3 
76 208 207 1 
77 529 530 1 
78 286 272 3 
79 286 285 1 
80 272 1036 3 
81 272 271 1 
82 272 282 3 
83 282 286 3 
84 282 281 1 
85 282 1036 3 
86 1036 286 3 
87 1036 1035 1 
88 6001 6002 1 
89 6001 6009 2 
90 1035 1329 2 
91 1259 1269 2 
92 2024 2023 1 
93 2526 2764 3 
94 2526 2525 1 
95 2298 2526 3 
96 2298 2297 1 
97 2298 2774 3 
98 2525 2785 2 
99 2764 2298 3 
100 2764 2763 1 
101 2486 2485 1 
102 2486 2774 3 
103 2531 2731 2 
104 2759 3251 2 
105 2001 2002 1 
106 2001 2485 2 
107 2511 2512 1 
108 2511 2767 2 
109 2251 2489 2 
110 1519 2275 2 
111 2512 2530 3 
112 2512 2522 3 
113 2532 2772 3 
114 2532 2531 1 
115 2522 2532 3 
116 2522 2772 3 
117 2530 2532 3 
118 2530 2529 1 
119 4047 4499 2 
120 4785 4786 1 
121 4749 5045 2 
122 4007 4785 2 
123 4019 4020 1 
124 5244 5243 1 
125 4020 4244 3 
126 4244 4243 1 
127 4736 5244 3 
128 5760 4804 3 
129 5760 5759 1 
130 6023 6037 2 
131 5766 5765 1 
132 5766 6242 3 
133 512 511 1 
134 512 274 3 
135 512 5766 3 
136 22 512 3 
137 22 274 3 
138 22 6242 3 
139 6010 6009 1 
140 6010 5766 3 
141 274 273 1 
142 274 6010 3 
143 6242 6010 3 
144 792 554 3 
145 792 791 1 
146 792 1068 3 
147 546 792 3 
148 546 545 1 
149 546 1068 3 
150 554 546 3 
151 554 553 1 
152 554 1068 3 
153 292 291 1 
154 5804 292 3 
155 5803 5804 1 
156 1278 1268 3 
157 1278 1277 1 
158 1278 1760 3 
159 1278 1536 3 
160 1267 1549 2 
161 1536 1268 3 
162 1536 1535 1 
163 1268 1760 3 
164 1268 1267 1 
165 1760 1536 3 
166 1760 1759 1 
167 1281 1541 2 
168 1773 2297 2 
169 2313 2775 2 
170 1520 2296 3 
171 1520 1519 1 
172 1520 2818 3 
173 2296 2314 3 
174 2296 2295 1 
175 2818 2296 3 
176 2818 2817 1 
177 2314 1520 3 
178 2314 2313 1 
179 2314 2818 3 
180 3252 2282 3 
181 3252 3251 1 
182 2302 2512 3 
183 2302 3496 3 
184 2302 3022 3 
185 3022 3021 1 
186 1783 3035 2 
187 2281 2529 2 
188 3496 3022 3 
189 1784 3252 3 
190 1784 1783 1 
191 3992 3502 3 
192 3502 3501 1 
193 3991 3992 1 
194 3540 4524 3 
195 4524 4523 1 
196 5549 5550 1 
197 3805 3806 1 
198 4079 4539 2 
199 5550 5074 3 
200 5074 5073 1 
201 4804 5284 3 
202 4804 4803 1 
203 4803 5797 2 
204 5296 4804 3 
205 5296 5295 1 
206 5296 5760 3 
207 5262 5538 3 
208 5262 5261 1 
209 5538 6048 3 
210 5538 5537 1 
211 6048 5262 3 
212 6048 6047 1 
213 5988 5034 3 
214 5988 5987 1 
215 5034 6050 3 
216 5034 5033 1 
217 4765 5537 2 
218 28 4766 3 
219 28 27 1 
220 28 5004 3 
221 28 5762 3 
222 4766 5762 3 
223 4766 4765 1 
224 27 6033 2 
225 21 22 1 
226 21 511 2 
227 527 549 2 
228 771 1533 2 
229 1031 1039 2 
230 1554 1532 3 
231 1554 1553 1 
232 1290 1792 3 
233 1290 1289 1 
234 1290 1542 3 
235 2308 1290 3 
236 2308 2307 1 
237 1792 2308 3 
238 1792 1791 1 
239 1542 1792 3 
240 1542 1541 1 
241 1542 2308 3 
242 2546 2272 3 
243 2272 2271 1 
244 2563 2817 2 
245 2044 2564 3 
246 2044 2043 1 
247 1515 1516 1 
248 1515 2801 2 
249 1516 2802 3 
250 2802 2801 1 
251 3031 3309 2 
252 3501 3539 2 
253 3539 3540 1 
254 4801 4802 1 
255 3574 4066 3 
256 3574 3573 1 
257 5332 5294 3 
258 5332 5331 1 
259 5536 5332 3 
260 5536 5535 1 
261 4014 5536 3 
262 4014 4013 1 
263 4014 5332 3 
264 4014 5294 3 
265 5294 5536 3 
266 5294 5293 1 
267 6050 5988 3 
268 6050 6049 1 
269 5821 5822 1 
270 5033 5799 2 
271 538 6044 3 
272 538 537 1 
273 322 538 3 
274 322 321 1 
275 322 784 3 
276 784 538 3 
277 784 783 1 
278 784 6044 3 
279 6044 322 3 
280 6044 6043 1 
281 537 5779 2 
282 798 314 3 
283 798 797 1 
284 70 798 3 
285 70 69 1 
286 70 72 3 
287 314 70 3 
288 314 313 1 
289 72 314 3 
290 72 71 1 
291 72 798 3 
292 41 321 2 
293 75 6093 2 
294 1570 1554 3 
295 1570 1569 1 
296 1570 2542 3 
297 1532 1570 3 
298 1532 1531 1 
299 1532 2542 3 
300 2542 1554 3 
301 2542 2541 1 
302 1540 1572 3 
303 1540 1539 1 
304 1289 2283 2 
305 1800 2292 3 
306 1800 1799 1 
307 1800 2022 3 
308 2054 2332 3 
309 2054 2053 1 
310 2332 1334 3 
311 2332 2331 1 
312 1334 2054 3 
313 1334 1333 1 
314 1321 2545 2 
315 2066 3330 3 
316 2066 2065 1 
317 2066 2346 3 
318 3330 2814 3 
319 3330 3329 1 
320 2346 3330 3 
321 2346 2345 1 
322 2346 2814 3 
323 2545 2546 1 
324 2814 2066 3 
325 2814 2813 1 
326 3840 3602 3 
327 3840 3839 1 
328 3602 3832 3 
329 3602 3601 1 
330 3832 3840 3 
331 3832 3831 1 
332 2345 2571 2 
333 2571 2572 1 
334 3563 3831 2 
335 3300 2822 3 
336 3300 3299 1 
337 3291 3299 2 
338 3068 3564 3 
339 3068 3067 1 
340 3068 3814 3 
341 3067 3321 2 
342 3792 3292 3 
343 3792 3791 1 
344 3292 3310 3 
345 3292 3291 1 
346 3310 3792 3 
347 3310 3309 1 
348 3859 4075 2 
349 3859 3860 1 
350 3064 2788 3 
351 3064 3063 1 
352 4013 4807 2 
353 4567 5331 2 
354 4567 4568 1 
355 5543 5544 1 
356 353 5541 2 
357 5822 5838 3 
358 5805 6043 2 
359 5838 5837 1 
360 5820 5552 3 
361 5820 5819 1 
362 5552 5542 3 
363 5552 5551 1 
364 5825 6063 2 
365 5542 5820 3 
366 5542 5541 1 
367 5544 5318 3 
368 324 76 3 
369 324 323 1 
370 324 562 3 
371 562 300 3 
372 562 561 1 
373 300 76 3 
374 300 299 1 
375 300 324 3 
376 76 562 3 
377 76 75 1 
378 855 1071 2 
379 1332 1066 3 
380 1332 1331 1 
381 836 1332 3 
382 836 835 1 
383 1066 836 3 
384 1066 1065 1 
385 94 1332 3 
386 94 93 1 
387 94 1066 3 
388 94 836 3 
389 1824 1800 3 
390 1824 1823 1 
391 2316 1096 3 
392 2292 1824 3 
393 2292 2291 1 
394 2022 1824 3 
395 2022 2021 1 
396 2022 2292 3 
397 2291 2353 2 
398 1799 2069 2 
399 2353 2354 1 
400 2813 3085 2 
401 2822 3280 3 
402 2822 2821 1 
403 2821 3317 2 
404 3814 3564 3 
405 3814 3813 1 
406 3307 3553 2 
407 3298 3068 3 
408 3298 3297 1 
409 3298 3814 3 
410 3564 3298 3 
411 3564 3563 1 
412 3308 3307 1 
413 3050 3308 3 
414 4086 3332 3 
415 4086 4085 1 
416 4086 4588 3 
417 4588 3776 3 
418 4588 4587 1 
419 3332 4588 3 
420 3332 3331 1 
421 3776 3332 3 
422 3776 3775 1 
423 3776 4086 3 
424 3541 3791 2 
425 4076 3064 3 
426 4076 4075 1 
427 2788 4076 3 
428 2788 2787 1 
429 4291 4587 2 
430 3331 3567 2 
431 4300 4058 3 
432 4300 4299 1 
433 4058 4292 3 
434 4058 4057 1 
435 3568 4058 3 
436 3568 3567 1 
437 3568 4300 3 
438 4292 3568 3 
439 4292 4291 1 
440 4292 4300 3 
441 3579 3821 2 
442 3579 3580 1 
443 5302 5814 3 
444 5302 5301 1 
445 5302 5830 3 
446 5301 6087 2 
447 5781 5782 1 
448 783 5777 2 
449 5567 5781 2 
450 5819 6083 2 
451 55 67 2 
452 96 1324 3 
453 1637 1638 1 
454 1101 1637 2 
455 581 1065 2 
456 596 1092 3 
457 596 595 1 
458 827 1095 2 
459 2057 2309 2 
460 2058 2306 3 
461 2058 2057 1 
462 2058 3352 3 
463 3038 3037 1 
464 2070 2069 1 
465 2070 3352 3 
466 2824 3038 3 
467 1826 2070 3 
468 2046 2312 3 
469 2046 2582 3 
470 2354 2582 3 
471 2354 3038 3 
472 1790 2058 3 
473 1790 1789 1 
474 1790 2354 3 
475 2582 2824 3 
476 3086 2844 3 
477 3086 3085 1 
478 2562 3086 3 
479 2562 2561 1 
480 2562 3074 3 
481 3074 3086 3 
482 3074 3073 1 
483 2337 2338 1 
484 2337 2827 2 
485 2844 2562 3 
486 2844 2843 1 
487 2844 3074 3 
488 1845 1846 1 
489 1825 1845 2 
490 1825 1826 1 
491 1846 2580 3 
492 2580 2579 1 
493 3343 3353 2 
494 3323 3775 2 
495 3584 3583 1 
496 3596 3584 3 
497 3583 3599 2 
498 3575 3815 2 
499 3822 4572 3 
500 3822 3821 1 
501 3822 4610 3 
502 3850 3822 3 
503 3850 3849 1 
504 3850 4610 3 
505 4610 4572 3 
506 4610 4609 1 
507 4572 3850 3 
508 4572 4571 1 
509 3835 4057 2 
510 4321 4351 2 
511 3836 4544 3 
512 3836 3835 1 
513 4798 3836 3 
514 4798 4797 1 
515 4544 4798 3 
516 4544 4543 1 
517 4797 5055 2 
518 303 304 1 
519 303 5609 2 
520 6106 98 3 
521 6106 6105 1 
522 81 82 1 
523 81 563 2 
524 564 563 1 
525 564 840 3 
526 840 839 1 
527 1083 1563 2 
528 595 1107 2 
529 839 1337 2 
530 817 2319 2 
531 2319 2320 1 
532 2320 1600 3 
533 2320 2368 3 
534 2064 2368 3 
535 2064 2120 3 
536 1367 1368 1 
537 1551 1552 1 
538 1551 2599 2 
539 1600 1599 1 
540 1600 2064 3 
541 1600 2368 3 
542 818 1098 3 
543 818 817 1 
544 2120 818 3 
545 2120 2119 1 
546 1098 2120 3 
547 1098 1097 1 
548 1599 2831 2 
549 1097 2565 2 
550 2071 2311 2 
551 2828 3604 3 
552 2828 2827 1 
553 3604 3044 3 
554 3604 3603 1 
555 3044 2828 3 
556 3044 3043 1 
557 2805 2806 1 
558 2805 3603 2 
559 3324 3848 3 
560 3324 3323 1 
561 3830 3324 3 
562 3830 3829 1 
563 3848 3830 3 
564 3848 3847 1 
565 3354 3338 3 
566 3354 3353 1 
567 2834 3354 3 
568 2834 2833 1 
569 3338 2834 3 
570 3338 3337 1 
571 4117 4341 2 
572 4342 4122 3 
573 4342 4822 3 
574 4342 4341 1 
575 4346 4342 3 
576 4346 4345 1 
577 4309 4543 2 
578 3849 4601 2 
579 4601 4602 1 
580 4105 4609 2 
581 4604 5346 3 
582 4604 4603 1 
583 4340 4604 3 
584 4340 4339 1 
585 5346 4340 3 
586 5346 5345 1 
587 4559 4561 2 
588 89 90 1 
589 89 339 2 
590 1148 1147 1 
591 115 857 2 
592 653 1147 2 
593 5619 5847 2 
594 863 1353 2 
595 1834 1108 3 
596 1834 1833 1 
597 1354 1108 3 
598 1354 1353 1 
599 1354 1834 3 
600 862 1354 3 
601 862 861 1 
602 862 1834 3 
603 1108 862 3 
604 1108 1107 1 
605 1338 1114 3 
606 1338 1337 1 
607 1634 1338 3 
608 1634 1633 1 
609 812 1338 3 
610 812 811 1 
611 812 1634 3 
612 1114 812 3 
613 1114 1113 1 
614 1114 1634 3 
615 1595 2099 2 
616 1081 1082 1 
617 1081 1833 2 
618 1812 1810 3 
619 1812 1811 1 
620 1812 2074 3 
621 1812 2090 3 
622 2566 2565 1 
623 2109 2607 2 
624 2095 2096 1 
625 2095 2591 2 
626 2826 2862 3 
627 2826 2825 1 
628 2825 3339 2 
629 3084 2826 3 
630 3084 3083 1 
631 2096 2366 3 
632 2366 2365 1 
633 2862 3084 3 
634 2862 2861 1 
635 2363 2861 2 
636 2364 2864 3 
637 2364 2363 1 
638 2364 2894 3 
639 2894 2342 3 
640 2894 2893 1 
641 2342 2864 3 
642 2342 2341 1 
643 2342 2364 3 
644 3091 3335 2 
645 3606 3864 3 
646 3606 3605 1 
647 3864 3092 3 
648 3864 3863 1 
649 3092 3606 3 
650 3092 3091 1 
651 4822 4346 3 
652 4822 4821 1 
653 4122 4822 3 
654 4122 4346 3 
655 4122 4121 1 
656 4121 4607 2 
657 3861 3862 1 
658 3861 4345 2 
659 4087 4093 2 
660 4100 4856 3 
661 4100 4099 1 
662 4324 4100 3 
663 4324 4323 1 
664 4324 4332 3 
665 4324 4856 3 
666 4323 5349 2 
667 5349 5350 1 
668 5079 5345 2 
669 5106 4580 3 
670 5106 5105 1 
671 5106 5376 3 
672 5376 4580 3 
673 5376 5375 1 
674 5092 5376 3 
675 5092 5091 1 
676 5092 5106 3 
677 4580 5092 3 
678 4580 4579 1 
679 5135 5347 2 
680 116 115 1 
681 90 116 3 
682 813 1109 2 
683 813 814 1 
684 2073 2879 2 
685 2879 2880 1 
686 2074 1810 3 
687 2074 2073 1 
688 1606 1630 3 
689 1606 1605 1 
690 2602 1606 3 
691 2602 2601 1 
692 1811 2623 2 
693 1630 1836 3 
694 1630 1629 1 
695 1630 2602 3 
696 1849 1850 1 
697 1589 1849 2 
698 1617 2855 2 
699 1836 1606 3 
700 1836 1835 1 
701 1836 2602 3 
702 2880 870 3 
703 1850 2566 3 
704 2624 2344 3 
705 2624 2623 1 
706 2344 2850 3 
707 2344 2343 1 
708 2344 2608 3 
709 2608 2624 3 
710 2608 2607 1 
711 2608 2850 3 
712 2850 2624 3 
713 2850 2849 1 
714 2856 1858 3 
715 2856 2855 1 
716 2856 3340 3 
717 3340 2616 3 
718 3340 3339 1 
719 1858 1857 1 
720 1858 3340 3 
721 1858 2616 3 
722 3100 2854 3 
723 2854 2853 1 
724 2616 2856 3 
725 2616 2615 1 
726 2611 3083 2 
727 2611 2612 1 
728 2365 2595 2 
729 2873 3643 2 
730 2595 2596 1 
731 2358 2870 3 
732 2870 2869 1 
733 3625 3626 1 
734 3625 3851 2 
735 2865 3901 2 
736 3862 3624 3 
737 6116 5626 3 
738 5626 5625 1 
739 6115 6116 1 
740 5890 900 3 
741 5890 5889 1 
742 612 5890 3 
743 612 611 1 
744 900 612 3 
745 900 899 1 
746 1432 1356 3 
747 1432 1431 1 
748 1106 1432 3 
749 1106 1105 1 
750 870 869 1 
751 1590 2376 3 
752 1590 1589 1 
753 2376 1862 3 
754 2376 2375 1 
755 1862 1590 3 
756 1862 1861 1 
757 2343 2369 2 
758 3104 2634 3 
759 3104 3103 1 
760 2604 2384 3 
761 2604 2603 1 
762 2604 3104 3 
763 2384 2634 3 
764 2384 2383 1 
765 2384 3104 3 
766 2634 2604 3 
767 2634 2633 1 
768 1889 2389 2 
769 2903 3133 2 
770 2903 2904 1 
771 1847 2615 2 
772 2829 3103 2 
773 1848 1847 1 
774 2596 1848 3 
775 3380 3644 3 
776 3380 3379 1 
777 3844 3380 3 
778 3844 3843 1 
779 3644 3844 3 
780 3644 3643 1 
781 3397 3843 2 
782 2877 3897 2 
783 3143 3641 2 
784 3869 4385 2 
785 3626 4370 3 
786 3626 4870 3 
787 3626 4104 3 
788 4104 4870 3 
789 4104 4103 1 
790 4870 4370 3 
791 4870 4869 1 
792 4370 4104 3 
793 4370 4369 1 
794 3902 3618 3 
795 3902 3901 1 
796 3902 3924 3 
797 3618 3642 3 
798 3618 3617 1 
799 3618 3924 3 
800 3642 3902 3 
801 3642 3641 1 
802 3924 3642 3 
803 3924 3923 1 
804 5356 5122 3 
805 5356 5355 1 
806 4120 5356 3 
807 4120 4119 1 
808 5122 4120 3 
809 5122 5121 1 
810 4103 4115 2 
811 5878 4156 3 
812 5878 5877 1 
813 5362 5878 3 
814 5362 5361 1 
815 4156 5362 3 
816 4156 4155 1 
817 5344 4372 3 
818 5344 5343 1 
819 389 899 2 
820 127 645 2 
821 877 5875 2 
822 414 1376 3 
823 1376 1375 1 
824 1874 1900 3 
825 1874 1873 1 
826 1900 1918 3 
827 1900 1899 1 
828 1358 1874 3 
829 1358 1357 1 
830 1358 1918 3 
831 1358 1900 3 
832 1918 1874 3 
833 1918 1917 1 
834 1614 1613 1 
835 634 1614 3 
836 1852 1394 3 
837 1852 1851 1 
838 1394 1870 3 
839 1394 1393 1 
840 1870 1852 3 
841 1870 1869 1 
842 1392 1386 3 
843 1392 1391 1 
844 1392 2626 3 
845 1392 2112 3 
846 1875 2633 2 
847 3379 3895 2 
848 2868 2886 3 
849 2886 2885 1 
850 2878 2877 1 
851 3136 2878 3 
852 2867 3635 2 
853 2867 2868 1 
854 3135 3909 2 
855 3135 3136 1 
856 3923 4923 2 
857 4923 4924 1 
858 3617 4111 2 
859 4397 5355 2 
860 4111 4112 1 
861 4658 4160 3 
862 4160 4159 1 
863 5641 5893 2 
864 5127 5361 2 
865 150 6124 3 
866 150 149 1 
867 150 160 3 
868 150 6154 3 
869 160 6154 3 
870 160 159 1 
871 6154 6124 3 
872 6154 6153 1 
873 6124 160 3 
874 6124 6123 1 
875 416 144 3 
876 416 415 1 
877 416 642 3 
878 6148 416 3 
879 6148 6147 1 
880 144 6148 3 
881 144 143 1 
882 642 144 3 
883 642 641 1 
884 642 6148 3 
885 1898 1624 3 
886 1898 1897 1 
887 1624 1162 3 
888 1624 1623 1 
889 1624 1682 3 
890 2125 2126 1 
891 2125 2151 2 
892 1682 1162 3 
893 1682 1681 1 
894 1682 1898 3 
895 1162 1898 3 
896 1162 1161 1 
897 2152 2374 3 
898 2152 2151 1 
899 2174 2152 3 
900 2174 2173 1 
901 2374 2174 3 
902 2374 2373 1 
903 1882 2174 3 
904 1882 1881 1 
905 1882 2374 3 
906 1882 2152 3 
907 1385 1881 2 
908 1907 2373 2 
909 1386 2112 3 
910 1386 1385 1 
911 2626 1386 3 
912 2626 2625 1 
913 3668 2676 3 
914 3668 3667 1 
915 2676 2658 3 
916 2676 2675 1 
917 2658 3418 3 
918 2658 2657 1 
919 2658 3668 3 
920 3399 3667 2 
921 3372 3910 3 
922 3910 3909 1 
923 3371 3372 1 
924 4657 4658 1 
925 4657 5167 2 
926 5409 5427 2 
927 403 5389 2 
928 5390 5654 3 
929 5390 5389 1 
930 5654 5692 3 
931 5654 5653 1 
932 5128 5916 3 
933 5128 5127 1 
934 5128 5910 3 
935 121 123 2 
936 182 136 3 
937 182 181 1 
938 182 386 3 
939 386 668 3 
940 386 385 1 
941 668 182 3 
942 668 667 1 
943 136 668 3 
944 136 135 1 
945 136 386 3 
946 135 399 2 
947 151 641 2 
948 152 151 1 
949 1142 152 3 
950 415 421 2 
951 1141 1439 2 
952 1141 1142 1 
953 1151 6159 2 
954 2148 1908 3 
955 1908 1907 1 
956 1643 1673 2 
957 2129 2175 2 
958 2625 2647 2 
959 940 2130 3 
960 940 939 1 
961 940 1176 3 
962 1644 940 3 
963 1644 1643 1 
964 2872 2402 3 
965 2872 2871 1 
966 2888 2872 3 
967 2888 2887 1 
968 2928 2186 3 
969 2186 2185 1 
970 3631 3679 2 
971 2934 3174 3 
972 2934 2933 1 
973 2656 2934 3 
974 2656 2655 1 
975 2656 3680 3 
976 3174 2656 3 
977 3174 3173 1 
978 3174 3680 3 
979 3161 4141 2 
980 3161 3162 1 
981 3425 3935 2 
982 3663 3899 2 
983 3665 4147 2 
984 4172 3396 3 
985 4172 4171 1 
986 4387 4388 1 
987 4387 4395 2 
988 4675 4887 2 
989 5434 5194 3 
990 5194 5193 1 
991 4399 5617 2 
992 4441 4442 1 
993 4878 4400 3 
994 4878 4877 1 
995 4888 4878 3 
996 4888 4887 1 
997 4400 4888 3 
998 4400 4399 1 
999 5692 5390 3 
1000 5692 5691 1 
1001 5443 5691 2 
1002 6168 122 3 
1003 6168 6167 1 
1004 5392 6168 3 
1005 5392 5391 1 
1006 122 5392 3 
1007 122 121 1 
1008 914 674 3 
1009 914 913 1 
1010 172 914 3 
1011 172 171 1 
1012 172 430 3 
1013 172 674 3 
1014 430 914 3 
1015 430 429 1 
1016 405 913 2 
1017 701 1173 2 
1018 422 1152 3 
1019 422 421 1 
1020 1152 656 3 
1021 1152 1151 1 
1022 934 422 3 
1023 934 933 1 
1024 934 1152 3 
1025 1208 1182 3 
1026 1208 1207 1 
1027 656 422 3 
1028 656 655 1 
1029 656 934 3 
1030 1174 1208 3 
1031 1174 1173 1 
1032 1174 1182 3 
1033 954 1208 3 
1034 954 953 1 
1035 954 1174 3 
1036 1176 2130 3 
1037 1176 1175 1 
1038 1176 1644 3 
1039 2130 1644 3 
1040 2130 2129 1 
1041 2665 2915 2 
1042 2185 2193 2 
1043 2871 2907 2 
1044 2927 2928 1 
1045 2673 3165 2 
1046 3680 2934 3 
1047 3680 3679 1 
1048 3906 3164 3 
1049 3906 3905 1 
1050 3164 3666 3 
1051 3164 3163 1 
1052 3164 3388 3 
1053 3388 3906 3 
1054 3388 3387 1 
1055 3388 3666 3 
1056 3666 3906 3 
1057 3666 3665 1 
1058 3193 4171 2 
1059 4148 4147 1 
1060 4388 4148 3 
1061 4428 4674 3 
1062 4428 4427 1 
1063 4428 4430 3 
1064 4168 4428 3 
1065 4168 4167 1 
1066 4674 4168 3 
1067 4674 4673 1 
1068 4138 4137 1 
1069 5664 4138 3 
1070 4137 4403 2 
1071 5433 5434 1 
1072 5369 5433 2 
1073 171 5649 2 
1074 6167 6189 2 
1075 6190 5978 3 
1076 6190 6189 1 
1077 5650 5658 3 
1078 5650 5649 1 
1079 406 405 1 
1080 6196 406 3 
1081 692 702 3 
1082 692 691 1 
1083 692 952 3 
1084 460 702 3 
1085 460 459 1 
1086 460 692 3 
1087 6214 440 3 
1088 440 439 1 
1089 1436 2448 3 
1090 2448 2447 1 
1091 3166 2444 3 
1092 3166 3165 1 
1093 2670 2192 3 
1094 2670 2669 1 
1095 2670 2674 3 
1096 3186 2670 3 
1097 3186 3185 1 
1098 2674 3186 3 
1099 2674 2673 1 
1100 2192 3186 3 
1101 2192 2191 1 
1102 2192 2674 3 
1103 3650 3649 1 
1104 3676 4192 3 
1105 3676 3675 1 
1106 4167 4457 2 
1107 4429 4695 2 
1108 3194 3652 3 
1109 3194 3193 1 
1110 3194 3394 3 
1111 3194 3688 3 
1112 4430 4168 3 
1113 4430 4429 1 
1114 4430 4674 3 
1115 4165 4673 2 
1116 5195 5196 1 
1117 5195 5219 2 
1118 4655 4917 2 
1119 4913 5165 2 
1120 4186 5218 3 
1121 4186 4185 1 
1122 4186 4460 3 
1123 4186 5220 3 
1124 5416 5166 3 
1125 5416 5415 1 
1126 4390 5370 3 
1127 4390 4389 1 
1128 4390 5416 3 
1129 5370 5166 3 
1130 5370 5369 1 
1131 5370 5416 3 
1132 5166 4390 3 
1133 5166 5165 1 
1134 5918 5917 1 
1135 689 893 2 
1136 891 5903 2 
1137 196 194 3 
1138 194 193 1 
1139 187 435 2 
1140 1190 5944 3 
1141 439 665 2 
1142 5944 5943 1 
1143 710 936 3 
1144 710 709 1 
1145 672 936 3 
1146 672 671 1 
1147 672 710 3 
1148 682 672 3 
1149 682 681 1 
1150 682 710 3 
1151 1940 1939 1 
1152 2425 2426 1 
1153 1435 1436 1 
1154 1435 2447 2 
1155 1689 1959 2 
1156 1666 1454 3 
1157 1454 1453 1 
1158 1706 1688 3 
1159 1706 1705 1 
1160 1688 2432 3 
1161 1688 1687 1 
1162 2432 1706 3 
1163 2432 2431 1 
1164 1950 2440 3 
1165 1950 1949 1 
1166 3402 2900 3 
1167 3401 3435 2 
1168 3401 3402 1 
1169 4192 1664 3 
1170 4192 4191 1 
1171 1664 3676 3 
1172 1664 1663 1 
1173 3976 3460 3 
1174 3460 3459 1 
1175 4220 4672 3 
1176 4672 4671 1 
1177 4219 4693 2 
1178 4219 4220 1 
1179 3974 3738 3 
1180 3430 3930 3 
1181 3430 3429 1 
1182 3930 4166 3 
1183 3930 3929 1 
1184 4166 3430 3 
1185 4166 4165 1 
1186 5442 4210 3 
1187 5442 5441 1 
1188 4210 4698 3 
1189 4210 4209 1 
1190 4698 4448 3 
1191 4698 4697 1 
1192 4698 5442 3 
1193 5462 5461 1 
1194 4447 5217 2 
1195 4448 4210 3 
1196 4448 4447 1 
1197 4448 5442 3 
1198 4697 5457 2 
1199 5196 5462 3 
1200 5220 4460 3 
1201 5220 5219 1 
1202 5218 5220 3 
1203 5218 5217 1 
1204 4460 5218 3 
1205 4460 4459 1 
1206 5454 6222 3 
1207 5454 5453 1 
1208 5210 5454 3 
1209 5210 5209 1 
1210 5415 5673 2 
1211 5484 5483 1 
1212 5972 5484 3 
1213 693 1177 2 
1214 428 694 3 
1215 694 693 1 
1216 730 729 1 
1217 5994 730 3 
1218 221 222 1 
1219 221 431 2 
1220 222 178 3 
1221 178 177 1 
1222 458 436 3 
1223 458 457 1 
1224 177 1189 2 
1225 1189 1190 1 
1226 1480 1462 3 
1227 1480 1479 1 
1228 709 1461 2 
1229 1462 1496 3 
1230 1462 1461 1 
1231 1496 1480 3 
1232 1496 1495 1 
1233 1422 1496 3 
1234 1422 1421 1 
1235 1422 1480 3 
1236 1422 1462 3 
1237 1456 980 3 
1238 1456 1455 1 
1239 980 1194 3 
1240 980 979 1 
1241 962 1456 3 
1242 962 961 1 
1243 962 980 3 
1244 962 1194 3 
1245 1713 1983 2 
1246 2426 1940 3 
1247 1225 1421 2 
1248 1217 1941 2 
1249 1954 1702 3 
1250 1954 1953 1 
1251 1954 1960 3 
1252 1939 2205 2 
1253 1960 1702 3 
1254 1960 1959 1 
1255 2205 2206 1 
1256 1687 1949 2 
1257 2900 2899 1 
1258 2899 3673 2 
1259 3674 3673 1 
1260 3172 3674 3 
1261 3946 3450 3 
1262 3946 3945 1 
1263 3958 3946 3 
1264 3958 3957 1 
1265 3945 4671 2 
1266 3701 3975 2 
1267 3975 3976 1 
1268 3662 4668 3 
1269 3662 3661 1 
1270 3429 3693 2 
1271 3761 5441 2 
1272 4209 5451 2 
1273 6217 6218 1 
1274 5696 5230 3 
1275 5696 5695 1 
1276 5696 6240 3 
1277 6240 5470 3 
1278 6240 6239 1 
1279 5470 5696 3 
1280 5470 5469 1 
1281 5230 5470 3 
1282 5230 5229 1 
1283 5230 6240 3 
1284 6218 424 3 
1285 424 423 1 
1286 5206 5964 3 
1287 5206 5205 1 
1288 5206 5938 3 
1289 5938 5964 3 
1290 5938 5937 1 
1291 5938 6174 3 
1292 5964 6174 3 
1293 5964 5963 1 
1294 6174 5206 3 
1295 6174 6173 1 
1296 6164 5486 3 
1297 6164 6163 1 
1298 179 461 2 
1299 461 462 1 
1300 923 924 1 
1301 453 923 2 
1302 432 454 3 
1303 432 431 1 
1304 454 6192 3 
1305 454 453 1 
1306 6192 432 3 
1307 6192 6191 1 
1308 5993 5994 1 
1309 451 452 1 
1310 451 5993 2 
1311 1457 1479 2 
1312 472 216 3 
1313 472 471 1 
1314 472 1714 3 
1315 6200 472 3 
1316 6200 6199 1 
1317 1720 1719 1 
1318 1720 2206 3 
1319 1942 1964 3 
1320 1942 1941 1 
1321 1942 2206 3 
1322 1964 1720 3 
1323 1964 1963 1 
1324 1964 2206 3 
1325 3444 3192 3 
1326 3444 3443 1 
1327 3444 3964 3 
1328 3192 3964 3 
1329 3192 3191 1 
1330 3232 3192 3 
1331 3232 3231 1 
1332 3232 3444 3 
1333 2948 3958 3 
1334 2948 2947 1 
1335 2948 3450 3 
1336 2948 3946 3 
1337 3450 3958 3 
1338 3450 3449 1 
1339 3225 3963 2 
1340 3449 3941 2 
1341 2445 2446 1 
1342 2445 3207 2 
1343 3719 3931 2 
1344 4425 4955 2 
1345 3932 3934 3 
1346 3932 3931 1 
1347 3934 4956 3 
1348 3934 3933 1 
1349 4956 3932 3 
1350 4956 4955 1 
1351 3694 4956 3 
1352 3694 3693 1 
1353 3694 3934 3 
1354 3694 3932 3 
1355 3762 4464 3 
1356 3762 3761 1 
1357 3466 3762 3 
1358 3466 3465 1 
1359 4464 3466 3 
1360 4464 4463 1 
1361 4206 4988 3 
1362 4206 4205 1 
1363 4988 4438 3 
1364 4988 4987 1 
1365 4438 4206 3 
1366 4438 4437 1 
1367 4438 4474 3 
1368 4474 4206 3 
1369 4474 4473 1 
1370 4474 4988 3 
1371 4738 3998 3 
1372 4738 4737 1 
1373 3998 4478 3 
1374 3998 3997 1 
1375 465 6239 2 
1376 5693 5695 2 
1377 466 5464 3 
1378 466 465 1 
1379 232 466 3 
1380 232 231 1 
1381 5464 232 3 
1382 5464 5463 1 
1383 706 180 3 
1384 706 705 1 
1385 706 5478 3 
1386 180 5968 3 
1387 180 179 1 
1388 180 5478 3 
1389 5968 706 3 
1390 5968 5967 1 
1391 5478 5968 3 
1392 5478 5477 1 
1393 5486 5676 3 
1394 5486 5485 1 
1395 5676 6164 3 
1396 5676 5675 1 
1397 705 6191 2 
1398 479 480 1 
1399 731 749 2 
1400 699 1215 2 
1401 1216 1458 3 
1402 1216 1215 1 
1403 1470 1216 3 
1404 1470 1469 1 
1405 1458 1470 3 
1406 1458 1457 1 
1407 1736 2730 3 
1408 1736 1735 1 
1409 2236 1736 3 
1410 2236 2235 1 
1411 2730 2236 3 
1412 2730 2729 1 
1413 1486 2236 3 
1414 1486 1485 1 
1415 1486 2730 3 
1416 1486 1736 3 
1417 1734 1733 1 
1418 1502 1734 3 
1419 2190 3984 3 
1420 2190 2450 3 
1421 2190 2189 1 
1422 2450 3208 3 
1423 2450 2449 1 
1424 3208 2190 3 
1425 3208 3984 3 
1426 3208 3207 1 
1427 3984 2450 3 
1428 3984 3983 1 
1429 3933 3959 2 
1430 4478 4738 3 
1431 4478 4477 1 
1432 4507 4737 2 
1433 5028 4232 3 
1434 5028 5027 1 
1435 5012 4232 3 
1436 5012 5011 1 
1437 5012 5028 3 
1438 4232 4016 3 
1439 4232 4231 1 
1440 4969 4987 2 
1441 4016 5028 3 
1442 4016 4015 1 
1443 4016 5012 3 
1444 4479 4713 2 
1445 4252 4508 3 
1446 4508 4507 1 
1447 4982 4992 3 
1448 4982 4981 1 
1449 4714 4982 3 
1450 4714 4713 1 
1451 4992 4714 3 
1452 4992 4991 1 
1453 5468 230 3 
1454 5468 5467 1 
1455 5467 6215 2 
1456 5245 5246 1 
1457 5245 5961 2 
1458 231 5973 2 
1459 230 5992 3 
1460 230 229 1 
1461 202 5468 3 
1462 202 201 1 
1463 202 5992 3 
1464 202 230 3 
1465 5992 5468 3 
1466 5992 5991 1 
1467 6215 6216 1 
1468 504 6238 3 
1469 504 503 1 
1470 6250 504 3 
1471 6250 6249 1 
1472 972 1004 3 
1473 476 972 3 
1474 476 750 3 
1475 260 259 1 
1476 260 476 3 
1477 988 260 3 
1478 1004 750 3 
1479 1004 1003 1 
1480 750 734 3 
1481 750 749 1 
1482 734 1004 3 
1483 734 733 1 
1484 734 972 3 
1485 463 971 2 
1486 971 972 1 
1487 491 739 2 
1488 713 1201 2 
1489 740 1202 3 
1490 740 739 1 
1491 740 958 3 
1492 1474 1478 3 
1493 1478 1477 1 
1494 1477 1991 2 
1495 1975 2479 2 
1496 1975 1976 1 
1497 1501 1537 2 
1498 1501 1502 1 
1499 2966 2710 3 
1500 2966 2965 1 
1501 2232 2460 3 
1502 2232 2231 1 
1503 2232 2700 3 
1504 2232 3472 3 
1505 3969 4241 2 
1506 4241 4242 1 
1507 3979 3983 2 
1508 3980 3979 1 
1509 3491 3492 1 
1510 3491 4485 2 
1511 3473 3474 1 
1512 3473 4193 2 
1513 4734 5252 3 
1514 5252 5251 1 
1515 4259 4721 2 
1516 4251 4711 2 
1517 4251 4252 1 
1518 3751 4015 2 
1519 4501 4991 2 
1520 5246 5248 3 
1521 5248 5247 1 
1522 242 5974 3 
1523 242 226 3 
1524 242 241 1 
1525 226 236 3 
1526 226 225 1 
1527 236 242 3 
1528 236 5974 3 
1529 236 235 1 
1530 5974 226 3 
1531 5974 5973 1 
1532 5247 5497 2 
1533 5497 5498 1 
1534 225 6025 2 
1535 5498 5726 3 
1536 5498 5998 3 
1537 5710 5998 3 
1538 5710 6216 3 
1539 5998 5997 1 
1540 5998 6216 3 
1541 5726 6216 3 
1542 220 5710 3 
1543 220 5726 3 
1544 220 5498 3 
1545 5730 5729 1 
1546 46 5730 3 
1547 5731 5732 1 
1548 6051 6052 1 
1549 243 475 2 
1550 1024 1023 1 
1551 475 476 1 
1552 268 1024 3 
1553 1202 1490 3 
1554 1202 1201 1 
1555 1490 740 3 
1556 1490 1489 1 
1557 958 1490 3 
1558 958 957 1 
1559 958 1202 3 
1560 1945 2227 2 
1561 2461 2462 1 
1562 1537 1538 1 
1563 2224 2972 3 
1564 2224 2223 1 
1565 2791 3267 2 
1566 2242 2224 3 
1567 2242 2241 1 
1568 1503 2761 2 
1569 3468 2516 3 
1570 3468 3467 1 
1571 3812 3016 3 
1572 3812 3811 1 
1573 3016 3798 3 
1574 3016 3015 1 
1575 3798 3812 3 
1576 3798 3797 1 
1577 4283 4975 2 
1578 4223 4224 1 
1579 4223 4757 2 
1580 4284 5222 3 
1581 4284 4283 1 
1582 4284 4722 3 
1583 4284 4990 3 
1584 5222 4722 3 
1585 5222 5221 1 
1586 4722 4990 3 
1587 4722 4721 1 
1588 4990 5222 3 
1589 4990 4989 1 
1590 4757 4758 1 
1591 4758 4724 3 
1592 3752 4978 3 
1593 3752 3751 1 
1594 3752 4712 3 
1595 5510 3752 3 
1596 5510 5509 1 
1597 4978 5510 3 
1598 4978 4977 1 
1599 4712 5510 3 
1600 4712 4711 1 
1601 4712 4978 3 
1602 254 5982 3 
1603 254 253 1 
1604 254 6026 3 
1605 6026 5982 3 
1606 6026 6025 1 
1607 5982 508 3 
1608 5982 5981 1 
1609 508 254 3 
1610 508 507 1 
1611 508 6026 3 
1612 5725 5726 1 
1613 247 5753 2 
1614 5784 6038 3 
1615 24 474 3 
1616 24 23 1 
1617 24 6018 3 
1618 24 6014 3 
1619 6018 474 3 
1620 6018 6017 1 
1621 6038 6037 1 
1622 489 519 2 
1623 5255 5747 2 
1624 6014 6018 3 
1625 6014 6013 1 
1626 474 6014 3 
1627 474 473 1 
1628 17 18 1 
1629 5783 5795 2 
1630 5783 5784 1 
1631 5732 266 3 
1632 1011 1483 2 
1633 473 525 2 
1634 525 526 1 
1635 1012 782 3 
1636 1012 1011 1 
1637 1012 1030 3 
1638 1012 1276 3 
1639 782 1276 3 
1640 782 781 1 
1641 1276 1030 3 
1642 1276 1275 1 
1643 1030 782 3 
1644 1030 1029 1 
1645 6052 748 3 
1646 748 747 1 
1647 764 310 3 
1648 764 1246 3 
1649 515 516 1 
1650 515 1263 2 
1651 522 521 1 
1652 522 768 3 
1653 270 522 3 
1654 270 768 3 
1655 270 526 3 
1656 284 283 1 
1657 284 502 3 
1658 48 516 3 
1659 48 284 3 
1660 48 764 3 
1661 516 284 3 
1662 722 1510 3 
1663 722 721 1 
1664 722 1246 3 
1665 310 309 1 
1666 310 1246 3 
1667 535 1021 2 
1668 1021 1022 1 
1669 1242 1738 3 
1670 1242 1241 1 
1671 1738 486 3 
1672 1738 1737 1 
1673 509 1243 2 
1674 1510 1260 3 
1675 1510 1509 1 
1676 3 747 2 
1677 486 1242 3 
1678 486 485 1 
1679 536 1002 3 
1680 536 535 1 
1681 536 1758 3 
1682 1002 1020 3 
1683 1002 1001 1 
1684 1002 1758 3 
1685 1758 1020 3 
1686 1758 1757 1 
1687 1020 536 3 
1688 1020 1019 1 
1689 1008 1280 3 
1690 1008 1007 1 
1691 1008 1508 3 
1692 1786 1008 3 
1693 1786 1785 1 
1694 1508 1280 3 
1695 1508 1507 1 
1696 1508 1786 3 
1697 2266 2770 3 
1698 2266 2265 1 
1699 736 1224 3 
1700 736 735 1 
1701 2294 2266 3 
1702 2294 2293 1 
1703 1730 736 3 
1704 1730 1729 1 
1705 1724 1748 3 
1706 1724 1723 1 
1707 1724 2012 3 
1708 1743 1744 1 
1709 1723 2253 2 
1710 2253 2254 1 
1711 1511 1512 1 
1712 1511 1743 2 
1713 1767 1768 1 
1714 2279 2509 2 
1715 2228 3000 3 
1716 2228 2227 1 
1717 2280 2279 1 
1718 2280 2492 3 
1719 2280 2786 3 
1720 1518 2492 3 
1721 1518 2254 3 
1722 1518 2786 3 
1723 2254 2280 3 
1724 2254 2786 3 
1725 3000 2736 3 
1726 3000 2999 1 
1727 2736 2228 3 
1728 2736 2735 1 
1729 2754 2276 3 
1730 2754 2753 1 
1731 2508 2276 3 
1732 2508 2507 1 
1733 2508 2754 3 
1734 2018 2508 3 
1735 2018 2017 1 
1736 2018 2754 3 
1737 2753 2773 2 
1738 2261 2771 2 
1739 2768 2792 3 
1740 2768 2767 1 
1741 2792 3268 3 
1742 2792 2791 1 
1743 3268 2768 3 
1744 3268 3267 1 
1745 2798 3546 3 
1746 2798 2797 1 
1747 3026 2798 3 
1748 3026 3025 1 
1749 2259 3011 2 
1750 3005 3229 2 
1751 3546 3026 3 
1752 3546 3545 1 
1753 3020 2798 3 