ITEM: TIMESTEP
104280
ITEM: NUMBER OF ENTRIES
8223
ITEM: BOX BOUNDS pp pp ff
0.0000000000000000e+00 7.2168784000000002e+01
0.0000000000000000e+00 7.2168784000000002e+01
0.0000000000000000e+00 1.2000000000000000e+01
ITEM: ENTRIES index c_1[1] c_1[2] c_1[3]
1 248 12 3 
2 248 247 1 
3 6022 248 3 
4 6022 6021 1 
5 5732 266 3 
6 266 265 1 
7 34 248 3 
8 34 33 1 
9 34 6022 3 
10 12 34 3 
11 12 11 1 
12 12 6022 3 
13 6001 6002 1 
14 6001 6009 2 
15 244 243 1 
16 6002 244 3 
17 243 475 2 
18 1245 1246 1 
19 983 1245 2 
20 1020 536 3 
21 1020 1019 1 
22 1758 1020 3 
23 1758 1757 1 
24 536 1002 3 
25 536 535 1 
26 536 1758 3 
27 1002 1020 3 
28 1002 1001 1 
29 1002 1758 3 
30 1008 1280 3 
31 1008 1007 1 
32 1008 1508 3 
33 1508 1280 3 
34 1508 1507 1 
35 1508 1786 3 
36 1744 2024 3 
37 2024 2023 1 
38 3018 2760 3 
39 3017 3018 1 
40 2525 2785 2 
41 2760 2759 1 
42 2276 2018 3 
43 2276 2275 1 
44 2508 2276 3 
45 2508 2507 1 
46 2508 2754 3 
47 2018 2508 3 
48 2018 2017 1 
49 2018 2754 3 
50 2754 2276 3 
51 2754 2753 1 
52 2732 1504 3 
53 2732 2731 1 
54 2732 2762 3 
55 1504 2252 3 
56 1504 1503 1 
57 2252 2732 3 
58 2252 2251 1 
59 2252 2762 3 
60 2262 3262 3 
61 2262 2261 1 
62 2262 2518 3 
63 2762 1504 3 
64 2762 2761 1 
65 2251 2489 2 
66 1503 2761 2 
67 3262 3788 3 
68 3262 3261 1 
69 3788 2262 3 
70 3788 3787 1 
71 2261 2771 2 
72 3261 3545 2 
73 2516 4004 3 
74 2516 2515 1 
75 4004 3468 3 
76 4004 4003 1 
77 3812 3016 3 
78 3812 3811 1 
79 285 1275 2 
80 286 272 3 
81 286 285 1 
82 272 1036 3 
83 272 271 1 
84 272 282 3 
85 1036 286 3 
86 1036 1035 1 
87 282 286 3 
88 282 281 1 
89 282 1036 3 
90 1260 722 3 
91 1260 1259 1 
92 1259 1269 2 
93 2741 2742 1 
94 2011 2741 2 
95 1519 2275 2 
96 1773 2297 2 
97 2764 2298 3 
98 2764 2763 1 
99 2759 3251 2 
100 2486 2485 1 
101 2486 2774 3 
102 2526 2764 3 
103 2526 2525 1 
104 2298 2526 3 
105 2298 2297 1 
106 2298 2774 3 
107 2002 2486 3 
108 2002 2774 3 
109 2511 2512 1 
110 2511 2767 2 
111 2527 2528 1 
112 2512 2530 3 
113 2512 2522 3 
114 2772 2530 3 
115 2772 2771 1 
116 2037 2527 2 
117 2777 3787 2 
118 4287 4288 1 
119 4005 4287 2 
120 3543 3811 2 
121 4523 5035 2 
122 4047 4499 2 
123 4019 4020 1 
124 4244 4243 1 
125 5259 5737 2 
126 529 530 1 
127 6010 6009 1 
128 6010 5766 3 
129 19 39 2 
130 19 20 1 
131 512 511 1 
132 512 274 3 
133 512 5766 3 
134 22 512 3 
135 22 274 3 
136 22 6242 3 
137 5766 5765 1 
138 5766 6242 3 
139 6242 6010 3 
140 274 273 1 
141 274 6010 3 
142 1330 1329 1 
143 554 546 3 
144 554 553 1 
145 554 1068 3 
146 546 792 3 
147 546 545 1 
148 546 1068 3 
149 792 554 3 
150 792 791 1 
151 792 1068 3 
152 5804 292 3 
153 20 1330 3 
154 1038 772 3 
155 1038 1037 1 
156 5803 5804 1 
157 772 1032 3 
158 772 771 1 
159 1032 1038 3 
160 1032 1031 1 
161 1270 1269 1 
162 1770 1270 3 
163 761 1037 2 
164 1278 1268 3 
165 1278 1277 1 
166 1278 1760 3 
167 1278 1536 3 
168 1536 1268 3 
169 1536 1535 1 
170 1268 1760 3 
171 1268 1267 1 
172 1760 1536 3 
173 1760 1759 1 
174 1281 1541 2 
175 1520 2296 3 
176 1520 1519 1 
177 1520 2818 3 
178 2296 2314 3 
179 2296 2295 1 
180 2818 2296 3 
181 2818 2817 1 
182 2314 1520 3 
183 2314 2313 1 
184 2314 2818 3 
185 2271 2763 2 
186 3252 2282 3 
187 3252 3251 1 
188 2001 2002 1 
189 2001 2485 2 
190 1784 3252 3 
191 1784 1783 1 
192 2282 1784 3 
193 2282 2281 1 
194 2281 2529 2 
195 3991 3992 1 
196 4282 4264 3 
197 4282 4281 1 
198 4282 4534 3 
199 3992 3502 3 
200 3502 3501 1 
201 4801 4802 1 
202 5549 5550 1 
203 5039 5535 2 
204 5760 4804 3 
205 5760 5759 1 
206 4804 5284 3 
207 4804 4803 1 
208 5296 4804 3 
209 5296 5295 1 
210 5296 5760 3 
211 5284 5296 3 
212 5284 5283 1 
213 5284 5760 3 
214 4765 5537 2 
215 5988 5034 3 
216 5988 5987 1 
217 6050 5988 3 
218 6050 6049 1 
219 5004 4766 3 
220 5004 5003 1 
221 5034 6050 3 
222 5034 5033 1 
223 28 4766 3 
224 28 27 1 
225 28 5004 3 
226 28 5762 3 
227 314 70 3 
228 314 313 1 
229 70 798 3 
230 70 69 1 
231 70 72 3 
232 72 314 3 
233 72 71 1 
234 72 798 3 
235 1016 550 3 
236 798 314 3 
237 798 797 1 
238 550 549 1 
239 1539 1791 2 
240 1792 2308 3 
241 1792 1791 1 
242 1542 1792 3 
243 1542 1541 1 
244 1542 2308 3 
245 2308 1290 3 
246 2308 2307 1 
247 1290 1792 3 
248 1290 1289 1 
249 1290 1542 3 
250 2546 2272 3 
251 2545 2546 1 
252 2564 2776 3 
253 2564 2563 1 
254 2044 2564 3 
255 2044 2043 1 
256 1783 3035 2 
257 2802 2801 1 
258 1516 2802 3 
259 3031 3309 2 
260 4802 4554 3 
261 3305 3581 2 
262 4554 4553 1 
263 5332 5294 3 
264 5332 5331 1 
265 4014 5536 3 
266 4014 4013 1 
267 4014 5332 3 
268 4014 5294 3 
269 5033 5799 2 
270 538 6044 3 
271 538 537 1 
272 322 538 3 
273 322 321 1 
274 322 784 3 
275 784 538 3 
276 784 783 1 
277 784 6044 3 
278 6044 322 3 
279 6044 6043 1 
280 5821 5822 1 
281 537 5779 2 
282 41 321 2 
283 75 6093 2 
284 558 548 3 
285 558 557 1 
286 558 804 3 
287 548 528 3 
288 548 547 1 
289 804 548 3 
290 804 803 1 
291 528 804 3 
292 528 527 1 
293 528 558 3 
294 1301 1569 2 
295 1302 1540 3 
296 1302 1301 1 
297 1540 1572 3 
298 1540 1539 1 
299 1064 1572 3 
300 1064 1063 1 
301 1064 1540 3 
302 1064 1302 3 
303 1572 1302 3 
304 1572 1571 1 
305 1333 2307 2 
306 2315 2316 1 
307 1570 1554 3 
308 1570 1569 1 
309 1570 2542 3 
310 1289 2283 2 
311 1795 2053 2 
312 1292 2284 3 
313 1292 1291 1 
314 2813 3085 2 
315 1796 2564 3 
316 1796 1795 1 
317 1796 2776 3 
318 1796 2044 3 
319 2814 2066 3 
320 2814 2813 1 
321 2346 3330 3 
322 2346 2345 1 
323 2346 2814 3 
324 3840 3602 3 
325 3840 3839 1 
326 3602 3832 3 
327 3602 3601 1 
328 3832 3840 3 
329 3832 3831 1 
330 3067 3321 2 
331 3792 3292 3 
332 3792 3791 1 
333 3292 3310 3 
334 3292 3291 1 
335 3310 3792 3 
336 3310 3309 1 
337 3859 4075 2 
338 3859 3860 1 
339 4312 3322 3 
340 4312 4311 1 
341 3322 3582 3 
342 3322 3321 1 
343 3582 4312 3 
344 3582 3581 1 
345 3332 4588 3 
346 3332 3331 1 
347 4086 3332 3 
348 4086 4085 1 
349 4086 4588 3 
350 4588 3776 3 
351 4588 4587 1 
352 3776 3332 3 
353 3776 3775 1 
354 3776 4086 3 
355 4567 5331 2 
356 4567 4568 1 
357 5542 5820 3 
358 5542 5541 1 
359 5820 5552 3 
360 5820 5819 1 
361 5043 5317 2 
362 5552 5542 3 
363 5552 5551 1 
364 5838 5837 1 
365 5822 5838 3 
366 5805 6043 2 
367 5825 6063 2 
368 300 76 3 
369 300 299 1 
370 300 324 3 
371 562 300 3 
372 562 561 1 
373 76 562 3 
374 76 75 1 
375 324 76 3 
376 324 323 1 
377 324 562 3 
378 783 5777 2 
379 1332 1066 3 
380 1332 1331 1 
381 836 1332 3 
382 836 835 1 
383 1066 836 3 
384 1066 1065 1 
385 94 1332 3 
386 94 93 1 
387 94 1066 3 
388 94 836 3 
389 827 1095 2 
390 1096 1095 1 
391 2316 1096 3 
392 1824 1800 3 
393 1824 1823 1 
394 2292 1824 3 
395 2292 2291 1 
396 1800 2292 3 
397 1800 1799 1 
398 1800 2022 3 
399 2022 1824 3 
400 2022 2021 1 
401 2022 2292 3 
402 2079 2331 2 
403 1799 2069 2 
404 2353 2354 1 
405 2291 2353 2 
406 3086 2844 3 
407 3086 3085 1 
408 2562 3086 3 
409 2562 2561 1 
410 2562 3074 3 
411 3563 3831 2 
412 3291 3299 2 
413 2821 3317 2 
414 3323 3775 2 
415 3063 3569 2 
416 3607 3813 2 
417 3062 3582 3 
418 3062 3061 1 
419 3062 4312 3 
420 3062 3322 3 
421 4076 3064 3 
422 4076 4075 1 
423 2788 4076 3 
424 2788 2787 1 
425 3331 3567 2 
426 3064 2788 3 
427 3064 3063 1 
428 4291 4587 2 
429 2787 3589 2 
430 4300 4058 3 
431 4300 4299 1 
432 4058 4292 3 
433 4058 4057 1 
434 3568 4058 3 
435 3568 3567 1 
436 3568 4300 3 
437 4292 3568 3 
438 4292 4291 1 
439 4292 4300 3 
440 3856 3855 1 
441 5543 5544 1 
442 5318 5317 1 
443 5544 5318 3 
444 5819 6083 2 
445 5044 5302 3 
446 5044 5043 1 
447 5302 5814 3 
448 5302 5301 1 
449 5302 5830 3 
450 5559 6053 2 
451 5560 5808 3 
452 5560 5559 1 
453 5560 5794 3 
454 355 356 1 
455 337 355 2 
456 1637 1638 1 
457 1101 1637 2 
458 581 1065 2 
459 1551 1552 1 
460 1551 2599 2 
461 1790 2058 3 
462 1790 1789 1 
463 1790 2354 3 
464 2058 2306 3 
465 2058 2057 1 
466 2058 3352 3 
467 2306 1790 3 
468 2306 2305 1 
469 2306 3352 3 
470 3038 3037 1 
471 2070 2069 1 
472 2070 3352 3 
473 1826 2070 3 
474 2824 3038 3 
475 2354 2582 3 
476 2354 3038 3 
477 2582 2824 3 
478 2337 2338 1 
479 2337 2827 2 
480 2071 2311 2 
481 1825 1845 2 
482 1825 1826 1 
483 1845 1846 1 
484 2580 2579 1 
485 1846 2580 3 
486 3308 3307 1 
487 2330 2594 3 
488 2330 2329 1 
489 3050 3308 3 
490 3066 3794 3 
491 3066 3065 1 
492 3066 3344 3 
493 3318 3066 3 
494 3318 3317 1 
495 3318 3344 3 
496 3344 3794 3 
497 3344 3343 1 
498 3848 3830 3 
499 3848 3847 1 
500 3830 3324 3 
501 3830 3829 1 
502 3324 3848 3 
503 3324 3323 1 
504 3794 3318 3 
505 3794 3793 1 
506 4108 4110 3 
507 4108 4107 1 
508 4110 3620 3 
509 4110 4109 1 
510 3343 3353 2 
511 3596 3584 3 
512 3584 3583 1 
513 3595 3596 1 
514 3595 4107 2 
515 3583 3599 2 
516 3822 4572 3 
517 3822 3821 1 
518 3822 4610 3 
519 3850 3822 3 
520 3850 3849 1 
521 3850 4610 3 
522 4610 4572 3 
523 4610 4609 1 
524 4572 3850 3 
525 4572 4571 1 
526 3835 4057 2 
527 4321 4351 2 
528 3836 4544 3 
529 3836 3835 1 
530 4798 3836 3 
531 4798 4797 1 
532 4544 4798 3 
533 4544 4543 1 
534 4797 5055 2 
535 5316 6088 3 
536 5301 6087 2 
537 5807 5839 2 
538 5808 5568 3 
539 5808 5807 1 
540 6084 5816 3 
541 6084 6083 1 
542 5610 74 3 
543 5610 5609 1 
544 5610 5816 3 
545 5610 6084 3 
546 74 6084 3 
547 74 73 1 
548 5816 74 3 
549 5816 5815 1 
550 1148 1147 1 
551 96 1324 3 
552 82 564 3 
553 82 840 3 
554 1324 1323 1 
555 564 563 1 
556 564 840 3 
557 840 839 1 
558 839 1337 2 
559 582 338 3 
560 582 581 1 
561 572 306 3 
562 572 571 1 
563 572 582 3 
564 338 572 3 
565 338 337 1 
566 1638 860 3 
567 860 859 1 
568 841 843 2 
569 1077 1367 2 
570 1367 1368 1 
571 2319 2320 1 
572 817 2319 2 
573 2064 2368 3 
574 2064 2120 3 
575 2120 818 3 
576 2120 2119 1 
577 1600 1599 1 
578 1600 2064 3 
579 1600 2368 3 
580 1098 2120 3 
581 1098 1097 1 
582 2320 1600 3 
583 2320 2368 3 
584 818 1098 3 
585 818 817 1 
586 2828 3604 3 
587 2828 2827 1 
588 3604 3044 3 
589 3604 3603 1 
590 2072 2071 1 
591 2338 2072 3 
592 3037 3095 2 
593 2555 2579 2 
594 3354 3338 3 
595 3354 3353 1 
596 3338 2834 3 
597 3338 3337 1 
598 2834 3354 3 
599 2834 2833 1 
600 4117 4341 2 
601 3849 4601 2 
602 4309 4543 2 
603 3833 4571 2 
604 3833 3834 1 
605 4601 4602 1 
606 4355 4603 2 
607 4604 5346 3 
608 4604 4603 1 
609 4579 5335 2 
610 303 304 1 
611 303 5609 2 
612 5619 5847 2 
613 115 857 2 
614 653 1147 2 
615 81 82 1 
616 81 563 2 
617 1338 1114 3 
618 1338 1337 1 
619 1595 2099 2 
620 2099 2100 1 
621 1081 1082 1 
622 1081 1833 2 
623 1810 2090 3 
624 1810 1809 1 
625 2074 1810 3 
626 2074 2073 1 
627 2090 2074 3 
628 2090 2089 1 
629 1812 1810 3 
630 1812 1811 1 
631 1812 2074 3 
632 1812 2090 3 
633 1097 2565 2 
634 2601 2609 2 
635 2109 2607 2 
636 2095 2096 1 
637 2095 2591 2 
638 2862 3084 3 
639 2862 2861 1 
640 2826 2862 3 
641 2826 2825 1 
642 3084 2826 3 
643 3084 3083 1 
644 2333 2849 2 
645 2096 2366 3 
646 2366 2365 1 
647 2363 2861 2 
648 3616 2846 3 
649 3616 3615 1 
650 2352 3616 3 
651 2352 2351 1 
652 2846 2352 3 
653 2846 2845 1 
654 1871 2617 2 
655 2342 2864 3 
656 2342 2341 1 
657 2342 2364 3 
658 2864 2894 3 
659 2864 2863 1 
660 2364 2864 3 
661 2364 2363 1 
662 2364 2894 3 
663 2894 2342 3 
664 2894 2893 1 
665 3092 3606 3 
666 3092 3091 1 
667 3606 3864 3 
668 3606 3605 1 
669 3864 3092 3 
670 3864 3863 1 
671 4822 4346 3 
672 4822 4821 1 
673 4122 4822 3 
674 4122 4346 3 
675 4122 4121 1 
676 4342 4122 3 
677 4342 4822 3 
678 4342 4341 1 
679 4346 4342 3 
680 4346 4345 1 
681 3861 3862 1 
682 3861 4345 2 
683 4087 4093 2 
684 4332 4100 3 
685 4332 4331 1 
686 4100 4856 3 
687 4100 4099 1 
688 4324 4100 3 
689 4324 4323 1 
690 4324 4332 3 
691 4324 4856 3 
692 4856 4332 3 
693 4856 4855 1 
694 4340 4604 3 
695 4340 4339 1 
696 4820 5110 3 
697 4820 4819 1 
698 4820 5802 3 
699 5802 5110 3 
700 5802 5801 1 
701 4088 4820 3 
702 4088 4087 1 
703 4088 5802 3 
704 4323 5349 2 
705 5346 4340 3 
706 5346 5345 1 
707 5349 5350 1 
708 5092 5376 3 
709 5092 5091 1 
710 5092 5106 3 
711 5376 4580 3 
712 5376 5375 1 
713 4580 5092 3 
714 4580 4579 1 
715 5106 4580 3 
716 5106 5105 1 
717 5106 5376 3 
718 5574 5094 3 
719 5574 5573 1 
720 116 115 1 
721 90 116 3 
722 1082 1608 3 
723 1082 2100 3 
724 1082 1838 3 
725 2073 2879 2 
726 2879 2880 1 
727 2880 870 3 
728 870 869 1 
729 2566 2565 1 
730 1850 2566 3 
731 1606 1630 3 
732 1606 1605 1 
733 2602 1606 3 
734 2602 2601 1 
735 1811 2623 2 
736 1849 1850 1 
737 1836 1606 3 
738 1836 1835 1 
739 1836 2602 3 
740 1630 1836 3 
741 1630 1629 1 
742 1630 2602 3 
743 2624 2344 3 
744 2624 2623 1 
745 2344 2850 3 
746 2344 2343 1 
747 2344 2608 3 
748 2608 2624 3 
749 2608 2607 1 
750 2608 2850 3 
751 2850 2624 3 
752 2850 2849 1 
753 1857 3099 2 
754 3099 3100 1 
755 3100 2854 3 
756 2854 2853 1 
757 2825 3339 2 
758 2829 3103 2 
759 2611 3083 2 
760 2611 2612 1 
761 2619 2853 2 
762 2596 1848 3 
763 2595 2596 1 
764 2612 3180 3 
765 2358 2870 3 
766 2874 2618 3 
767 2874 2873 1 
768 2870 2869 1 
769 2357 2358 1 
770 4121 4607 2 
771 3143 3641 2 
772 3862 3624 3 
773 4370 4104 3 
774 4370 4369 1 
775 4870 4370 3 
776 4870 4869 1 
777 4104 4870 3 
778 4104 4103 1 
779 3626 4370 3 
780 3626 4870 3 
781 3626 4104 3 
782 5079 5345 2 
783 5350 4862 3 
784 5854 5832 3 
785 852 851 1 
786 877 5875 2 
787 5890 900 3 
788 5890 5889 1 
789 612 5890 3 
790 612 611 1 
791 900 612 3 
792 900 899 1 
793 1356 1106 3 
794 1356 1355 1 
795 1432 1356 3 
796 1432 1431 1 
797 1106 1432 3 
798 1106 1105 1 
799 615 1431 2 
800 1852 1394 3 
801 1852 1851 1 
802 1870 1852 3 
803 1870 1869 1 
804 1394 1870 3 
805 1394 1393 1 
806 1605 1869 2 
807 1617 2855 2 
808 1590 2376 3 
809 1590 1589 1 
810 1589 1849 2 
811 2616 2856 3 
812 2616 2615 1 
813 1858 1857 1 
814 1858 3340 3 
815 1858 2616 3 
816 3340 2616 3 
817 3340 3339 1 
818 2856 1858 3 
819 2856 2855 1 
820 2856 3340 3 
821 2343 2369 2 
822 1847 2615 2 
823 3104 2634 3 
824 3104 3103 1 
825 2604 2384 3 
826 2604 2603 1 
827 2604 3104 3 
828 2873 3643 2 
829 1848 1847 1 
830 2904 2390 3 
831 2869 3117 2 
832 3180 3179 1 
833 3644 3844 3 
834 3644 3643 1 
835 3380 3644 3 
836 3380 3379 1 
837 3844 3380 3 
838 3844 3843 1 
839 2877 3897 2 
840 3869 4385 2 
841 3625 3626 1 
842 3625 3851 2 
843 3624 3623 1 
844 4103 4115 2 
845 4621 4627 2 
846 4593 4594 1 
847 4593 5115 2 
848 5878 4156 3 
849 5878 5877 1 
850 4156 5362 3 
851 4156 4155 1 
852 5626 5625 1 
853 5362 5878 3 
854 5362 5361 1 
855 6116 5626 3 
856 389 899 2 
857 150 6124 3 
858 150 149 1 
859 150 160 3 
860 150 6154 3 
861 1874 1900 3 
862 1874 1873 1 
863 1900 1918 3 
864 1900 1899 1 
865 1358 1874 3 
866 1358 1357 1 
867 1358 1918 3 
868 1358 1900 3 
869 414 1376 3 
870 1376 1375 1 
871 1918 1874 3 
872 1918 1917 1 
873 633 634 1 
874 1651 1652 1 
875 1651 1917 2 
876 1137 1138 1 
877 1137 1375 2 
878 2132 2131 1 
879 2614 2132 3 
880 2613 2614 1 
881 1889 2389 2 
882 2384 2634 3 
883 2384 2383 1 
884 2384 3104 3 
885 2634 2604 3 
886 2634 2633 1 
887 2390 2389 1 
888 2891 3131 2 
889 3668 2676 3 
890 3668 3667 1 
891 3418 2676 3 
892 3418 3417 1 
893 3418 3668 3 
894 2658 3418 3 
895 2658 2657 1 
896 2658 3668 3 
897 2676 2658 3 
898 2676 2675 1 
899 2868 2886 3 
900 2886 2885 1 
901 2867 3635 2 
902 2867 2868 1 
903 3371 3372 1 
904 2885 3139 2 
905 3136 2878 3 
906 2878 2877 1 
907 3642 3902 3 
908 3642 3641 1 
909 3618 3642 3 
910 3618 3617 1 
911 3618 3924 3 
912 3902 3618 3 
913 3902 3901 1 
914 3902 3924 3 
915 3924 3642 3 
916 3924 3923 1 
917 4127 4129 2 
918 4397 5355 2 
919 4882 5114 3 
920 4882 4881 1 
921 5410 4406 3 
922 5410 5409 1 
923 4932 5410 3 
924 4932 4931 1 
925 4638 4882 3 
926 4638 4637 1 
927 4638 4864 3 
928 4406 4932 3 
929 4406 4405 1 
930 5121 5143 2 
931 4864 4882 3 
932 4864 4863 1 
933 4864 5114 3 
934 5114 4638 3 
935 5114 5113 1 
936 4598 4646 3 
937 4598 4597 1 
938 4598 4628 3 
939 4598 4640 3 
940 4628 4646 3 
941 4628 4627 1 
942 4646 4640 3 
943 4646 4645 1 
944 4640 4628 3 
945 4640 4639 1 
946 929 5877 2 
947 5127 5361 2 
948 6124 160 3 
949 6124 6123 1 
950 160 6154 3 
951 160 159 1 
952 6154 6124 3 
953 6154 6153 1 
954 1682 1162 3 
955 1682 1681 1 
956 1682 1898 3 
957 1624 1162 3 
958 1624 1623 1 
959 1624 1682 3 
960 1162 1898 3 
961 1162 1161 1 
962 1898 1624 3 
963 1898 1897 1 
964 2174 2152 3 
965 2174 2173 1 
966 2152 2374 3 
967 2152 2151 1 
968 2374 2174 3 
969 2374 2373 1 
970 1882 2174 3 
971 1882 1881 1 
972 1882 2374 3 
973 1882 2152 3 
974 634 1614 3 
975 1614 1613 1 
976 1907 2373 2 
977 1385 1881 2 
978 2407 2613 2 
979 2651 2675 2 
980 3399 3667 2 
981 3910 3909 1 
982 3135 3909 2 
983 3135 3136 1 
984 3923 4923 2 
985 4923 4924 1 
986 4658 4160 3 
987 4160 4159 1 
988 4919 5423 2 
989 4159 4895 2 
990 5409 5427 2 
991 5906 930 3 
992 5906 5905 1 
993 5906 5908 3 
994 5908 5640 3 
995 5908 5907 1 
996 5640 930 3 
997 5640 5639 1 
998 5640 5906 3 
999 159 6161 2 
1000 121 123 2 
1001 668 182 3 
1002 668 667 1 
1003 182 136 3 
1004 182 181 1 
1005 182 386 3 
1006 136 668 3 
1007 136 135 1 
1008 136 386 3 
1009 151 641 2 
1010 386 668 3 
1011 386 385 1 
1012 409 6187 2 
1013 1142 152 3 
1014 152 151 1 
1015 6148 416 3 
1016 6148 6147 1 
1017 144 6148 3 
1018 144 143 1 
1019 185 1161 2 
1020 1151 6159 2 
1021 1643 1673 2 
1022 1908 1907 1 
1023 2148 1908 3 
1024 2130 1644 3 
1025 2130 2129 1 
1026 2402 2888 3 
1027 2402 2401 1 
1028 2186 2185 1 
1029 2888 2872 3 
1030 2888 2887 1 
1031 2680 2158 3 
1032 2680 2679 1 
1033 2680 3408 3 
1034 3400 2680 3 
1035 3400 3399 1 
1036 3680 2934 3 
1037 3680 3679 1 
1038 2656 2934 3 
1039 2656 2655 1 
1040 2656 3680 3 
1041 2158 3400 3 
1042 2158 2157 1 
1043 2158 3408 3 
1044 3408 3400 3 
1045 3408 3407 1 
1046 2934 3174 3 
1047 2934 2933 1 
1048 3174 2656 3 
1049 3174 3173 1 
1050 3174 3680 3 
1051 3115 3129 2 
1052 3912 4172 3 
1053 3912 3911 1 
1054 3425 3935 2 
1055 3913 4427 2 
1056 5664 4138 3 
1057 4399 5617 2 
1058 4675 4887 2 
1059 4138 4137 1 
1060 5434 5194 3 
1061 4888 4878 3 
1062 4888 4887 1 
1063 4400 4888 3 
1064 4400 4399 1 
1065 5194 5193 1 
1066 4878 4400 3 
1067 4878 4877 1 
1068 4661 4929 2 
1069 111 5391 2 
1070 6168 122 3 
1071 6168 6167 1 
1072 5392 6168 3 
1073 5392 5391 1 
1074 122 5392 3 
1075 122 121 1 
1076 405 913 2 
1077 425 447 2 
1078 673 951 2 
1079 701 1173 2 
1080 934 422 3 
1081 934 933 1 
1082 934 1152 3 
1083 422 1152 3 
1084 422 421 1 
1085 1644 940 3 
1086 1644 1643 1 
1087 940 2130 3 
1088 940 939 1 
1089 940 1176 3 
1090 1176 2130 3 
1091 1176 1175 1 
1092 1176 1644 3 
1093 1948 2666 3 
1094 2666 2665 1 
1095 2185 2193 2 
1096 2871 2907 2 
1097 2673 3165 2 
1098 2191 3185 2 
1099 2933 3649 2 
1100 3163 3173 2 
1101 3164 3666 3 
1102 3164 3163 1 
1103 3164 3388 3 
1104 3906 3164 3 
1105 3906 3905 1 
1106 4428 4674 3 
1107 4428 4427 1 
1108 4428 4430 3 
1109 4430 4168 3 
1110 4430 4429 1 
1111 4430 4674 3 
1112 4674 4168 3 
1113 4674 4673 1 
1114 4168 4428 3 
1115 4168 4167 1 
1116 4137 4403 2 
1117 5433 5434 1 
1118 5369 5433 2 
1119 5440 5940 3 
1120 5440 5439 1 
1121 5440 5914 3 
1122 5940 5914 3 
1123 5940 5939 1 
1124 5162 5940 3 
1125 5162 5161 1 
1126 5162 5440 3 
1127 5444 5660 3 
1128 5444 5443 1 
1129 6167 6189 2 
1130 406 405 1 
1131 702 952 3 
1132 702 701 1 
1133 692 702 3 
1134 692 691 1 
1135 692 952 3 
1136 460 702 3 
1137 460 459 1 
1138 460 692 3 
1139 952 460 3 
1140 952 951 1 
1141 6196 406 3 
1142 459 935 2 
1143 2431 2437 2 
1144 1435 1436 1 
1145 1435 2447 2 
1146 2674 3186 3 
1147 2674 2673 1 
1148 2670 2192 3 
1149 2670 2669 1 
1150 2670 2674 3 
1151 3186 2670 3 
1152 3186 3185 1 
1153 3388 3906 3 
1154 3388 3387 1 
1155 3388 3666 3 
1156 3666 3906 3 
1157 3666 3665 1 
1158 4429 4695 2 
1159 4165 4673 2 
1160 5195 5196 1 
1161 5195 5219 2 
1162 4186 5218 3 
1163 4186 4185 1 
1164 4186 4460 3 
1165 4186 5220 3 
1166 5370 5166 3 
1167 5370 5369 1 
1168 5370 5416 3 
1169 5166 4390 3 
1170 5166 5165 1 
1171 5416 5166 3 
1172 5416 5415 1 
1173 4390 5370 3 
1174 4390 4389 1 
1175 4390 5416 3 
1176 5429 5669 2 
1177 5183 5453 2 
1178 5415 5673 2 
1179 5918 5917 1 
1180 5670 5924 3 
1181 5670 5669 1 
1182 6184 5918 3 
1183 5413 5659 2 
1184 689 893 2 
1185 1178 894 3 
1186 1178 1177 1 
1187 670 1178 3 
1188 670 669 1 
1189 428 694 3 
1190 694 693 1 
1191 1190 5944 3 
1192 5944 5943 1 
1193 679 6175 2 
1194 439 665 2 
1195 709 1461 2 
1196 936 682 3 
1197 936 935 1 
1198 710 936 3 
1199 710 709 1 
1200 672 936 3 
1201 672 671 1 
1202 672 710 3 
1203 682 672 3 
1204 682 681 1 
1205 682 710 3 
1206 2426 1940 3 
1207 1454 1453 1 
1208 1666 1454 3 
1209 2432 1706 3 
1210 2432 2431 1 
1211 1706 1688 3 
1212 1706 1705 1 
1213 1688 2432 3 
1214 1688 1687 1 
1215 2925 2441 2 
1216 2899 3673 2 
1217 1663 2721 2 
1218 4220 4672 3 
1219 4672 4671 1 
1220 3929 4667 2 
1221 3930 4166 3 
1222 3930 3929 1 
1223 4166 3430 3 
1224 4166 4165 1 
1225 3430 3930 3 
1226 3430 3429 1 
1227 4219 4693 2 
1228 4219 4220 1 
1229 5202 4710 3 
1230 5462 5461 1 
1231 5196 5462 3 
1232 5220 4460 3 
1233 5220 5219 1 
1234 4447 5217 2 
1235 4460 5218 3 
1236 4460 4459 1 
1237 5218 5220 3 
1238 5218 5217 1 
1239 4697 5457 2 
1240 6217 6218 1 
1241 5484 5483 1 
1242 5972 5484 3 
1243 693 1177 2 
1244 198 197 1 
1245 730 729 1 
1246 195 196 1 
1247 195 1383 2 
1248 5994 730 3 
1249 222 178 3 
1250 178 177 1 
1251 221 222 1 
1252 221 431 2 
1253 458 436 3 
1254 458 457 1 
1255 5993 5994 1 
1256 666 434 3 
1257 666 665 1 
1258 680 666 3 
1259 680 679 1 
1260 680 1186 3 
1261 434 680 3 
1262 434 433 1 
1263 434 1186 3 
1264 1186 666 3 
1265 1186 1185 1 
1266 177 1189 2 
1267 1189 1190 1 
1268 657 683 2 
1269 1462 1496 3 
1270 1462 1461 1 
1271 1422 1496 3 
1272 1422 1421 1 
1273 1422 1480 3 
1274 1422 1462 3 
1275 1480 1462 3 
1276 1480 1479 1 
1277 1496 1480 3 
1278 1496 1495 1 
1279 1225 1421 2 
1280 1940 1939 1 
1281 1954 1702 3 
1282 1954 1953 1 
1283 1954 1960 3 
1284 1702 1200 3 
1285 1702 1701 1 
1286 1960 1702 3 
1287 1960 1959 1 
1288 1200 1960 3 
1289 1200 1199 1 
1290 1200 1954 3 
1291 1217 1941 2 
1292 1226 1214 3 
1293 1226 1225 1 
1294 1226 2204 3 
1295 726 1214 3 
1296 726 725 1 
1297 726 1226 3 
1298 1199 1683 2 
1299 1720 1719 1 
1300 1720 2206 3 
1301 1942 1964 3 
1302 1942 1941 1 
1303 1942 2206 3 
1304 1964 1720 3 
1305 1964 1963 1 
1306 1964 2206 3 
1307 1689 1959 2 
1308 1687 1949 2 
1309 3402 2900 3 
1310 2900 2899 1 
1311 3674 3673 1 
1312 3172 3674 3 
1313 3459 3957 2 
1314 3171 3172 1 
1315 3171 3189 2 
1316 3460 3459 1 
1317 3946 3450 3 
1318 3946 3945 1 
1319 3958 3946 3 
1320 3958 3957 1 
1321 3968 3967 1 
1322 2948 3958 3 
1323 2948 2947 1 
1324 2948 3450 3 
1325 2948 3946 3 
1326 3945 4671 2 
1327 3976 3460 3 
1328 3449 3941 2 
1329 3961 4435 2 
1330 3967 3977 2 
1331 3498 3690 3 
1332 3498 3497 1 
1333 3888 3498 3 
1334 3888 3887 1 
1335 3962 3662 3 
1336 3962 3961 1 
1337 3962 4668 3 
1338 3962 4426 3 
1339 4668 4426 3 
1340 4668 4667 1 
1341 4710 4709 1 
1342 3429 3693 2 
1343 4209 5451 2 
1344 4698 4448 3 
1345 4698 4697 1 
1346 4698 5442 3 
1347 4448 4210 3 
1348 4448 4447 1 
1349 4448 5442 3 
1350 4210 4698 3 
1351 4210 4209 1 
1352 5442 4210 3 
1353 5442 5441 1 
1354 5696 5230 3 
1355 5696 5695 1 
1356 5696 6240 3 
1357 5470 5696 3 
1358 5470 5469 1 
1359 6218 424 3 
1360 5230 5470 3 
1361 5230 5229 1 
1362 5230 6240 3 
1363 424 423 1 
1364 423 5933 2 
1365 6240 5470 3 
1366 6240 6239 1 
1367 5971 5972 1 
1368 5971 5975 2 
1369 179 461 2 
1370 209 729 2 
1371 461 462 1 
1372 432 454 3 
1373 432 431 1 
1374 6192 432 3 
1375 6192 6191 1 
1376 454 6192 3 
1377 454 453 1 
1378 451 452 1 
1379 451 5993 2 
1380 1457 1479 2 
1381 216 6200 3 
1382 216 215 1 
1383 216 1714 3 
1384 6200 472 3 
1385 6200 6199 1 
1386 1714 6200 3 
1387 1714 1713 1 
1388 1713 1983 2 
1389 3964 3232 3 
1390 3964 3963 1 
1391 3225 3963 2 
1392 3450 3958 3 
1393 3450 3449 1 
1394 3926 3968 3 
1395 2445 2446 1 
1396 2445 3207 2 
1397 3702 3701 1 
1398 3422 3702 3 
1399 3932 3934 3 
1400 3932 3931 1 
1401 3761 5441 2 
1402 3694 4956 3 
1403 3694 3693 1 
1404 3694 3934 3 
1405 3694 3932 3 
1406 3762 4464 3 
1407 3762 3761 1 
1408 3934 4956 3 
1409 3934 3933 1 
1410 4956 3932 3 
1411 4956 4955 1 
1412 4508 4507 1 
1413 201 5703 2 
1414 5963 5979 2 
1415 5206 5964 3 
1416 5206 5205 1 
1417 5206 5938 3 
1418 465 6239 2 
1419 466 5464 3 
1420 466 465 1 
1421 5938 5964 3 
1422 5938 5937 1 
1423 5938 6174 3 
1424 5964 6174 3 
1425 5964 5963 1 
1426 5464 232 3 
1427 5464 5463 1 
1428 5968 706 3 
1429 5968 5967 1 
1430 5478 5968 3 
1431 5478 5477 1 
1432 180 5968 3 
1433 180 179 1 
1434 180 5478 3 
1435 706 180 3 
1436 706 705 1 
1437 706 5478 3 
1438 6164 5486 3 
1439 6164 6163 1 
1440 5676 6164 3 
1441 5676 5675 1 
1442 705 6191 2 
1443 5486 5676 3 
1444 5486 5485 1 
1445 453 923 2 
1446 479 480 1 
1447 464 463 1 
1448 480 464 3 
1449 1216 1458 3 
1450 1216 1215 1 
1451 1470 1216 3 
1452 1470 1469 1 
1453 1458 1470 3 
1454 1458 1457 1 
1455 1494 718 3 
1456 1494 1493 1 
1457 970 1494 3 
1458 970 969 1 
1459 970 992 3 
1460 1486 2236 3 
1461 1486 1485 1 
1462 1486 2730 3 
1463 1486 1736 3 
1464 2236 1736 3 
1465 2236 2235 1 
1466 1736 2730 3 
1467 1736 1735 1 
1468 2190 3984 3 
1469 2190 2450 3 
1470 2190 2189 1 
1471 2450 3208 3 
1472 2450 2449 1 
1473 3208 2190 3 
1474 3208 3984 3 
1475 3208 3207 1 
1476 3984 2450 3 
1477 3984 3983 1 
1478 4198 3960 3 
1479 4198 4197 1 
1480 4194 4198 3 
1481 4194 4193 1 
1482 4194 4208 3 
1483 4208 4198 3 
1484 4208 4207 1 
1485 4464 3466 3 
1486 4464 4463 1 
1487 3466 3762 3 
1488 3466 3465 1 
1489 4478 4738 3 
1490 4478 4477 1 
1491 4252 4508 3 
1492 4251 4711 2 
1493 4251 4252 1 
1494 4982 4992 3 
1495 4982 4981 1 
1496 4714 4982 3 
1497 4714 4713 1 
1498 4981 5203 2 
1499 4992 4714 3 
1500 4992 4991 1 
1501 5468 230 3 
1502 5468 5467 1 
1503 232 466 3 
1504 232 231 1 
1505 5467 6215 2 
1506 230 5992 3 
1507 230 229 1 
1508 6215 6216 1 
1509 5477 5719 2 
1510 731 749 2 
1511 463 971 2 
1512 971 972 1 
1513 992 718 3 
1514 992 991 1 
1515 992 1494 3 
1516 718 970 3 
1517 718 717 1 
1518 491 739 2 
1519 1473 1474 1 
1520 1474 1478 3 
1521 1478 1477 1 
1522 2461 2462 1 
1523 1477 1991 2 
1524 1991 1992 1 
1525 1537 1538 1 
1526 1501 1537 2 
1527 1501 1502 1 
1528 2710 2990 3 
1529 2710 2709 1 
1530 2460 2700 3 
1531 2460 2459 1 
1532 2700 3472 3 
1533 2700 2699 1 
1534 2737 2738 1 
1535 2737 3463 2 
1536 3969 4241 2 
1537 4241 4242 1 
1538 4486 3478 3 
1539 4486 4485 1 
1540 3508 4486 3 
1541 3508 3507 1 
1542 3508 3722 3 
1543 3722 3478 3 
1544 3722 3721 1 
1545 3722 4486 3 
1546 3478 3508 3 
1547 3478 3477 1 
1548 4976 3454 3 
1549 4976 4975 1 
1550 4260 4480 3 
1551 4260 4259 1 
1552 5500 4976 3 
1553 5500 5499 1 
1554 4479 4713 2 
1555 4259 4721 2 
1556 5252 5251 1 
1557 3751 4015 2 
1558 4501 4991 2 
1559 4734 5252 3 
1560 5246 5248 3 
1561 5248 5247 1 
1562 236 242 3 
1563 236 5974 3 
1564 236 235 1 
1565 5974 226 3 
1566 5974 5973 1 
1567 226 236 3 
1568 226 225 1 
1569 242 5974 3 
1570 242 226 3 
1571 242 241 1 
1572 5497 5498 1 
1573 5247 5497 2 
1574 5487 5991 2 
1575 225 6025 2 
1576 508 254 3 
1577 508 507 1 
1578 508 6026 3 
1579 254 5982 3 
1580 254 253 1 
1581 254 6026 3 
1582 253 6235 2 
1583 5730 5729 1 
1584 46 5730 3 
1585 5731 5732 1 
1586 11 6051 2 
1587 6051 6052 1 
1588 1024 1023 1 
1589 268 1024 3 
1590 475 476 1 
1591 1465 1466 1 
1592 1465 1473 2 
1593 1945 2227 2 
1594 2228 3000 3 
1595 2228 2227 1 
1596 2491 2492 1 
1597 2491 2493 2 
1598 2518 3262 3 
1599 2518 2517 1 
1600 2518 3788 3 
1601 2791 3267 2 
1602 3491 3492 1 
1603 3491 4485 2 
1604 3016 3798 3 
1605 3016 3015 1 
1606 3254 3253 1 
1607 3798 3812 3 
1608 3798 3797 1 
1609 3492 3254 3 
1610 3015 3525 2 
1611 3477 3721 2 
1612 4757 4758 1 
1613 4223 4224 1 
1614 4223 4757 2 
1615 4722 4990 3 
1616 4722 4721 1 
1617 5222 4722 3 
1618 5222 5221 1 
1619 4284 5222 3 
1620 4284 4283 1 
1621 4284 4722 3 
1622 4284 4990 3 
1623 4724 4723 1 
1624 4758 4724 3 
1625 4990 5222 3 
1626 4990 4989 1 
1627 241 5709 2 
1628 6026 5982 3 
1629 6026 6025 1 
1630 247 5753 2 
1631 5784 6038 3 
1632 5255 5747 2 
1633 5754 5518 3 
1634 5754 5753 1 
1635 6038 6037 1 
1636 490 5754 3 
1637 490 489 1 
1638 6014 6018 3 
1639 6014 6013 1 
1640 6018 474 3 
1641 6018 6017 1 
1642 474 6014 3 
1643 474 473 1 
1644 24 474 3 
1645 24 23 1 
1646 24 6018 3 
1647 24 6014 3 
1648 17 18 1 
1649 473 525 2 
1650 33 501 2 
1651 501 502 1 
1652 1012 782 3 
1653 1012 1011 1 
1654 1012 1030 3 
1655 1012 1276 3 
1656 782 1276 3 
1657 782 781 1 
1658 1276 1030 3 
1659 1276 1275 1 
1660 1030 782 3 
1661 1030 1029 1 
1662 516 284 3 
1663 284 283 1 
1664 284 502 3 
1665 502 1022 3 
1666 502 516 3 
1667 505 506 1 
1668 505 743 2 
1669 525 526 1 
1670 526 522 3 
1671 526 1022 3 
1672 48 516 3 
1673 48 284 3 
1674 48 764 3 
1675 781 1523 2 
1676 535 1021 2 
1677 1021 1022 1 
1678 486 1242 3 
1679 486 485 1 
1680 485 1239 2 
1681 741 742 1 
1682 741 973 2 
1683 1013 1241 2 
1684 764 310 3 
1685 764 1246 3 
1686 1242 1738 3 
1687 1242 1241 1 
1688 515 516 1 
1689 515 1263 2 
1690 3 747 2 
1691 1256 1250 3 
1692 1256 1255 1 
1693 509 1243 2 
1694 1738 486 3 
1695 1738 1737 1 
1696 742 1236 3 
1697 1236 1235 1 
1698 1786 1008 3 
1699 1786 1785 1 
1700 1747 1757 2 
1701 1280 1786 3 
1702 1280 1279 1 
1703 1511 1512 1 
1704 1511 1743 2 
1705 1743 1744 1 
1706 2253 2254 1 
1707 1723 2253 2 
1708 2009 2505 2 
1709 2770 2294 3 
1710 2770 2769 1 
1711 1751 2769 2 
1712 2481 2482 1 
1713 2481 3017 2 
1714 2785 2786 1 
1715 2753 2773 2 
1716 2023 2293 2 
1717 2279 2509 2 
1718 2242 2224 3 
1719 2242 2241 1 
1720 2224 2972 3 
1721 2224 2223 1 
1722 2531 2731 2 
1723 2768 2792 3 
1724 2768 2767 1 
1725 2792 3268 3 
1726 2792 2791 1 
1727 2223 3447 2 
1728 3268 2768 3 
1729 3268 3267 1 
1730 2259 3011 2 
1731 3005 3229 2 
1732 3012 2490 3 
1733 3012 3011 1 
1734 2490 2248 3 
1735 2490 2489 1 
1736 2490 3448 3 
1737 2248 3012 3 
1738 2248 2247 1 
1739 2248 3448 3 
1740 3020 2798 3 
1741 3020 3019 1 
1742 3020 3546 3 
1743 3020 3026 3 
1744 3026 2798 3 
1745 3026 3025 1 
1746 3448 3012 3 
1747 3448 3447 1 
1748 3546 3026 3 
1749 3546 3545 1 
1750 2798 3546 3 
1751 2798 2797 1 
1752 3006 2992 3 