ITEM: TIMESTEP
9240
ITEM: NUMBER OF ENTRIES
3125
ITEM: BOX BOUNDS pp pp ff
0.0000000000000000e+00 7.2168784000000002e+01
0.0000000000000000e+00 7.2168784000000002e+01
0.0000000000000000e+00 1.2000000000000000e+01
ITEM: ENTRIES index c_1[1] c_1[2] c_1[3]
1 263 264 1 
2 745 746 1 
3 17 18 1 
4 505 506 1 
5 1257 1258 1 
6 1251 1252 1 
7 1763 1764 1 
8 1271 1272 1 
9 1279 1280 1 
10 1011 1012 1 
11 2503 2504 1 
12 2285 2286 1 
13 2481 2482 1 
14 2513 2514 1 
15 2489 2490 1 
16 3241 3242 1 
17 3013 3014 1 
18 3757 3758 1 
19 3495 3496 1 
20 3493 3494 1 
21 3761 3762 1 
22 4253 4254 1 
23 3511 3512 1 
24 4231 4232 1 
25 4011 4012 1 
26 4499 4500 1 
27 5013 5014 1 
28 5533 5534 1 
29 6231 6232 1 
30 6001 6002 1 
31 6003 6004 1 
32 6223 6224 1 
33 5511 5512 1 
34 6241 6242 1 
35 511 512 1 
36 267 268 1 
37 1023 1024 1 
38 525 526 1 
39 1039 1040 1 
40 1761 1762 1 
41 1515 1516 1 
42 1525 1526 1 
43 2763 2764 1 
44 2273 2274 1 
45 3005 3006 1 
46 2767 2768 1 
47 3003 3004 1 
48 3271 3272 1 
49 4021 4022 1 
50 3771 3772 1 
51 4523 4524 1 
52 4269 4270 1 
53 3773 3774 1 
54 5011 5012 1 
55 5281 5282 1 
56 5761 5762 1 
57 5765 5766 1 
58 6013 6014 1 
59 523 524 1 
60 21 22 1 
61 261 262 1 
62 33 34 1 
63 531 532 1 
64 273 274 1 
65 1021 1022 1 
66 1033 1034 1 
67 1041 1042 1 
68 1511 1512 1 
69 1771 1772 1 
70 1281 1282 1 
71 2535 2536 1 
72 3251 3252 1 
73 2531 2532 1 
74 3041 3042 1 
75 2765 2766 1 
76 2775 2776 1 
77 3021 3022 1 
78 3533 3534 1 
79 4531 4532 1 
80 3775 3776 1 
81 4291 4292 1 
82 5025 5026 1 
83 5291 5292 1 
84 5021 5022 1 
85 5015 5016 1 
86 5003 5004 1 
87 5283 5284 1 
88 5777 5778 1 
89 6011 6012 1 
90 6031 6032 1 
91 6023 6024 1 
92 11 12 1 
93 5753 5754 1 
94 541 542 1 
95 6041 6042 1 
96 553 554 1 
97 1303 1304 1 
98 1531 1532 1 
99 1541 1542 1 
100 1781 1782 1 
101 1283 1284 1 
102 2541 2542 1 
103 2033 2034 1 
104 3055 3056 1 
105 3531 3532 1 
106 3033 3034 1 
107 3289 3290 1 
108 3521 3522 1 
109 5031 5032 1 
110 4803 4804 1 
111 5271 5272 1 
112 5543 5544 1 
113 5779 5780 1 
114 5541 5542 1 
115 31 32 1 
116 6035 6036 1 
117 51 52 1 
118 791 792 1 
119 1067 1068 1 
120 1057 1058 1 
121 815 816 1 
122 795 796 1 
123 1053 1054 1 
124 1321 1322 1 
125 2043 2044 1 
126 2801 2802 1 
127 2799 2800 1 
128 3283 3284 1 
129 2523 2524 1 
130 3301 3302 1 
131 3581 3582 1 
132 3311 3312 1 
133 3555 3556 1 
134 3781 3782 1 
135 4061 4062 1 
136 4051 4052 1 
137 4551 4552 1 
138 4553 4554 1 
139 4325 4326 1 
140 4301 4302 1 
141 4315 4316 1 
142 5295 5296 1 
143 5041 5042 1 
144 5801 5802 1 
145 5823 5824 1 
146 5785 5786 1 
147 6071 6072 1 
148 63 64 1 
149 43 44 1 
150 561 562 1 
151 323 324 1 
152 313 314 1 
153 315 316 1 
154 69 70 1 
155 1323 1324 1 
156 1293 1294 1 
157 1073 1074 1 
158 1333 1334 1 
159 1571 1572 1 
160 1793 1794 1 
161 2543 2544 1 
162 2331 2332 1 
163 2823 2824 1 
164 3043 3044 1 
165 2551 2552 1 
166 2583 2584 1 
167 2581 2582 1 
168 3295 3296 1 
169 2839 2840 1 
170 3561 3562 1 
171 3051 3052 1 
172 3565 3566 1 
173 3573 3574 1 
174 4571 4572 1 
175 5061 5062 1 
176 4063 4064 1 
177 4303 4304 1 
178 5071 5072 1 
179 4823 4824 1 
180 4791 4792 1 
181 5051 5052 1 
182 5557 5558 1 
183 5301 5302 1 
184 6061 6062 1 
185 61 62 1 
186 327 328 1 
187 589 590 1 
188 71 72 1 
189 823 824 1 
190 1083 1084 1 
191 821 822 1 
192 571 572 1 
193 1563 1564 1 
194 1071 1072 1 
195 581 582 1 
196 1573 1574 1 
197 1821 1822 1 
198 2341 2342 1 
199 2811 2812 1 
200 2813 2814 1 
201 3071 3072 1 
202 3321 3322 1 
203 3589 3590 1 
204 3585 3586 1 
205 3831 3832 1 
206 3833 3834 1 
207 4071 4072 1 
208 3567 3568 1 
209 3579 3580 1 
210 3571 3572 1 
211 4321 4322 1 
212 4573 4574 1 
213 4581 4582 1 
214 4335 4336 1 
215 5073 5074 1 
216 5087 5088 1 
217 5325 5326 1 
218 5327 5328 1 
219 6083 6084 1 
220 73 74 1 
221 6073 6074 1 
222 331 332 1 
223 6089 6090 1 
224 601 602 1 
225 335 336 1 
226 585 586 1 
227 563 564 1 
228 81 82 1 
229 1831 1832 1 
230 1351 1352 1 
231 1581 1582 1 
232 2091 2092 1 
233 1811 1812 1 
234 2353 2354 1 
235 2335 2336 1 
236 2585 2586 1 
237 2561 2562 1 
238 2841 2842 1 
239 3351 3352 1 
240 3341 3342 1 
241 3331 3332 1 
242 3601 3602 1 
243 4081 4082 1 
244 3851 3852 1 
245 4821 4822 1 
246 5593 5594 1 
247 4825 4826 1 
248 5561 5562 1 
249 5591 5592 1 
250 591 592 1 
251 343 344 1 
252 113 114 1 
253 831 832 1 
254 1341 1342 1 
255 1103 1104 1 
256 841 842 1 
257 847 848 1 
258 1325 1326 1 
259 1081 1082 1 
260 1601 1602 1 
261 2333 2334 1 
262 1835 1836 1 
263 1857 1858 1 
264 2861 2862 1 
265 2833 2834 1 
266 3083 3084 1 
267 3111 3112 1 
268 2611 2612 1 
269 3091 3092 1 
270 3105 3106 1 
271 3863 3864 1 
272 3343 3344 1 
273 3857 3858 1 
274 3821 3822 1 
275 4091 4092 1 
276 4101 4102 1 
277 4593 4594 1 
278 5093 5094 1 
279 5345 5346 1 
280 5091 5092 1 
281 5097 5098 1 
282 6095 6096 1 
283 93 94 1 
284 101 102 1 
285 6101 6102 1 
286 1349 1350 1 
287 1101 1102 1 
288 881 882 1 
289 861 862 1 
290 1091 1092 1 
291 1113 1114 1 
292 1121 1122 1 
293 1605 1606 1 
294 1851 1852 1 
295 1843 1844 1 
296 2613 2614 1 
297 2875 2876 1 
298 2845 2846 1 
299 2615 2616 1 
300 2101 2102 1 
301 2863 2864 1 
302 3853 3854 1 
303 3365 3366 1 
304 4611 4612 1 
305 4861 4862 1 
306 5347 5348 1 
307 5601 5602 1 
308 5119 5120 1 
309 5355 5356 1 
310 5611 5612 1 
311 5637 5638 1 
312 361 362 1 
313 877 878 1 
314 369 370 1 
315 621 622 1 
316 1623 1624 1 
317 1353 1354 1 
318 1131 1132 1 
319 1389 1390 1 
320 1875 1876 1 
321 2121 2122 1 
322 2373 2374 1 
323 2363 2364 1 
324 2873 2874 1 
325 3123 3124 1 
326 2853 2854 1 
327 3131 3132 1 
328 2893 2894 1 
329 3133 3134 1 
330 3375 3376 1 
331 3883 3884 1 
332 3633 3634 1 
333 3623 3624 1 
334 4371 4372 1 
335 4121 4122 1 
336 4871 4872 1 
337 4591 4592 1 
338 5127 5128 1 
339 5375 5376 1 
340 5861 5862 1 
341 5123 5124 1 
342 111 112 1 
343 6121 6122 1 
344 613 614 1 
345 633 634 1 
346 875 876 1 
347 623 624 1 
348 1143 1144 1 
349 1631 1632 1 
350 1401 1402 1 
351 1393 1394 1 
352 1643 1644 1 
353 1373 1374 1 
354 2143 2144 1 
355 2131 2132 1 
356 1871 1872 1 
357 1391 1392 1 
358 2111 2112 1 
359 2381 2382 1 
360 2621 2622 1 
361 3121 3122 1 
362 3383 3384 1 
363 3865 3866 1 
364 3371 3372 1 
365 4395 4396 1 
366 4631 4632 1 
367 4625 4626 1 
368 5131 5132 1 
369 5133 5134 1 
370 5625 5626 1 
371 5633 5634 1 
372 5623 5624 1 
373 6141 6142 1 
374 5371 5372 1 
375 151 152 1 
376 143 144 1 
377 131 132 1 
378 141 142 1 
379 905 906 1 
380 901 902 1 
381 1425 1426 1 
382 1135 1136 1 
383 1395 1396 1 
384 1881 1882 1 
385 1891 1892 1 
386 2141 2142 1 
387 2125 2126 1 
388 2393 2394 1 
389 2377 2378 1 
390 3643 3644 1 
391 2913 2914 1 
392 2905 2906 1 
393 3143 3144 1 
394 3631 3632 1 
395 3391 3392 1 
396 4141 4142 1 
397 4135 4136 1 
398 4641 4642 1 
399 4393 4394 1 
400 3893 3894 1 
401 4651 4652 1 
402 5141 5142 1 
403 4897 4898 1 
404 5151 5152 1 
405 4629 4630 1 
406 5153 5154 1 
407 5381 5382 1 
408 4883 4884 1 
409 5641 5642 1 
410 5373 5374 1 
411 5383 5384 1 
412 5391 5392 1 
413 5883 5884 1 
414 121 122 1 
415 6143 6144 1 
416 911 912 1 
417 411 412 1 
418 1161 1162 1 
419 1621 1622 1 
420 1653 1654 1 
421 1883 1884 1 
422 1897 1898 1 
423 1381 1382 1 
424 1913 1914 1 
425 1901 1902 1 
426 2151 2152 1 
427 2391 2392 1 
428 2661 2662 1 
429 2655 2656 1 
430 4633 4634 1 
431 4167 4168 1 
432 4401 4402 1 
433 5143 5144 1 
434 4911 4912 1 
435 4901 4902 1 
436 4923 4924 1 
437 5663 5664 1 
438 4865 4866 1 
439 5407 5408 1 
440 415 416 1 
441 6161 6162 1 
442 6151 6152 1 
443 6153 6154 1 
444 401 402 1 
445 6175 6176 1 
446 185 186 1 
447 403 404 1 
448 417 418 1 
449 439 440 1 
450 925 926 1 
451 413 414 1 
452 1175 1176 1 
453 1661 1662 1 
454 1671 1672 1 
455 1659 1660 1 
456 1923 1924 1 
457 2185 2186 1 
458 2413 2414 1 
459 2663 2664 1 
460 3151 3152 1 
461 3161 3162 1 
462 3185 3186 1 
463 2933 2934 1 
464 2925 2926 1 
465 3681 3682 1 
466 3411 3412 1 
467 3923 3924 1 
468 4421 4422 1 
469 4153 4154 1 
470 4155 4156 1 
471 4673 4674 1 
472 4415 4416 1 
473 4661 4662 1 
474 5161 5162 1 
475 5171 5172 1 
476 443 444 1 
477 421 422 1 
478 6187 6188 1 
479 655 656 1 
480 673 674 1 
481 671 672 1 
482 913 914 1 
483 931 932 1 
484 943 944 1 
485 921 922 1 
486 1413 1414 1 
487 1411 1412 1 
488 1911 1912 1 
489 1441 1442 1 
490 1941 1942 1 
491 2901 2902 1 
492 2683 2684 1 
493 2681 2682 1 
494 3673 3674 1 
495 3423 3424 1 
496 3711 3712 1 
497 3665 3666 1 
498 4157 4158 1 
499 3675 3676 1 
500 3671 3672 1 
501 4163 4164 1 
502 4177 4178 1 
503 3661 3662 1 
504 3413 3414 1 
505 4423 4424 1 
506 4931 4932 1 
507 4691 4692 1 
508 5683 5684 1 
509 5431 5432 1 
510 5403 5404 1 
511 5411 5412 1 
512 5671 5672 1 
513 5673 5674 1 
514 6165 6166 1 
515 5901 5902 1 
516 173 174 1 
517 6163 6164 1 
518 6181 6182 1 
519 5941 5942 1 
520 429 430 1 
521 431 432 1 
522 177 178 1 
523 935 936 1 
524 941 942 1 
525 681 682 1 
526 691 692 1 
527 945 946 1 
528 459 460 1 
529 1171 1172 1 
530 1191 1192 1 
531 1691 1692 1 
532 1933 1934 1 
533 1693 1694 1 
534 2171 2172 1 
535 1949 1950 1 
536 2935 2936 1 
537 2437 2438 1 
538 2193 2194 1 
539 2431 2432 1 
540 2691 2692 1 
541 3431 3432 1 
542 3171 3172 1 
543 3195 3196 1 
544 3193 3194 1 
545 3203 3204 1 
546 3401 3402 1 
547 3201 3202 1 
548 4161 4162 1 
549 3931 3932 1 
550 4195 4196 1 
551 4935 4936 1 
552 5447 5448 1 
553 5195 5196 1 
554 5443 5444 1 
555 5183 5184 1 
556 5953 5954 1 
557 5453 5454 1 
558 5445 5446 1 
559 5921 5922 1 
560 5933 5934 1 
561 5935 5936 1 
562 5931 5932 1 
563 205 206 1 
564 6203 6204 1 
565 5691 5692 1 
566 6183 6184 1 
567 6195 6196 1 
568 705 706 1 
569 183 184 1 
570 451 452 1 
571 661 662 1 
572 471 472 1 
573 699 700 1 
574 1199 1200 1 
575 1197 1198 1 
576 1695 1696 1 
577 1943 1944 1 
578 1715 1716 1 
579 2201 2202 1 
580 2467 2468 1 
581 2689 2690 1 
582 2451 2452 1 
583 3221 3222 1 
584 3421 3422 1 
585 3473 3474 1 
586 3941 3942 1 
587 4445 4446 1 
588 4681 4682 1 
589 4683 4684 1 
590 4707 4708 1 
591 4431 4432 1 
592 4945 4946 1 
593 4965 4966 1 
594 4961 4962 1 
595 5425 5426 1 
596 5463 5464 1 
597 5951 5952 1 
598 5205 5206 1 
599 5945 5946 1 
600 441 442 1 
601 6191 6192 1 
602 461 462 1 
603 221 222 1 
604 971 972 1 
605 951 952 1 
606 211 212 1 
607 223 224 1 
608 191 192 1 
609 213 214 1 
610 957 958 1 
611 1443 1444 1 
612 1467 1468 1 
613 1203 1204 1 
614 1713 1714 1 
615 1711 1712 1 
616 2195 2196 1 
617 2723 2724 1 
618 3461 3462 1 
619 3463 3464 1 
620 3477 3478 1 
621 3701 3702 1 
622 3951 3952 1 
623 4463 4464 1 
624 4471 4472 1 
625 4963 4964 1 
626 4215 4216 1 
627 4951 4952 1 
628 5191 5192 1 
629 4975 4976 1 
630 4953 4954 1 
631 5451 5452 1 
632 5461 5462 1 
633 5965 5966 1 
634 6221 6222 1 
635 6213 6214 1 
636 6215 6216 1 
637 463 464 1 
638 711 712 1 
639 483 484 1 
640 1225 1226 1 
641 1461 1462 1 
642 1227 1228 1 
643 1481 1482 1 
644 1451 1452 1 
645 1221 1222 1 
646 1475 1476 1 
647 2473 2474 1 
648 2971 2972 1 
649 1961 1962 1 
650 2737 2738 1 
651 2973 2974 1 
652 3963 3964 1 
653 3983 3984 1 
654 3695 3696 1 
655 3971 3972 1 
656 4461 4462 1 
657 4731 4732 1 
658 5221 5222 1 
659 4991 4992 1 
660 5225 5226 1 
661 5713 5714 1 
662 5721 5722 1 
663 5971 5972 1 
664 5223 5224 1 
665 5703 5704 1 
666 5731 5732 1 
667 481 482 1 
668 243 244 1 
669 473 474 1 
670 975 976 1 
671 751 752 1 
672 5 6 1 
673 487 488 1 
674 1231 1232 1 
675 735 736 1 
676 1993 1994 1 
677 1233 1234 1 
678 1485 1486 1 
679 1981 1982 1 
680 1491 1492 1 
681 1991 1992 1 
682 1735 1736 1 
683 2233 2234 1 
684 2245 2246 1 
685 2501 2502 1 
686 2475 2476 1 
687 3231 3232 1 
688 3741 3742 1 
689 4221 4222 1 
690 3751 3752 1 
691 4223 4224 1 
692 4483 4484 1 
693 4735 4736 1 
694 4251 4252 1 
695 4977 4978 1 
696 4711 4712 1 
697 5491 5492 1 
698 5213 5214 1 
699 5489 5490 1 
700 6233 6234 1 
701 5723 5724 1 
702 1 2 1 
703 245 246 1 
704 253 254 1 
705 5993 5994 1 
706 225 226 1 
707 733 734 1 
708 1003 1004 1 
709 741 742 1 
710 1247 1248 1 
711 743 744 1 
712 983 984 1 
713 1001 1002 1 
714 997 998 1 
715 2243 2244 1 
716 1755 1756 1 
717 1983 1984 1 
718 1741 1742 1 
719 2743 2744 1 
720 1995 1996 1 
721 2001 2002 1 
722 1503 1504 1 
723 2011 2012 1 
724 2241 2242 1 
725 2251 2252 1 
726 2991 2992 1 
727 2731 2732 1 
728 2231 2232 1 
729 3001 3002 1 
730 3481 3482 1 
731 3255 3256 1 
732 3491 3492 1 
733 3991 3992 1 
734 3253 3254 1 
735 4491 4492 1 
736 3721 3722 1 
737 3731 3732 1 
738 4503 4504 1 
739 4741 4742 1 
740 4245 4246 1 
741 4723 4724 1 
742 4761 4762 1 
743 4999 5000 1 
744 5481 5482 1 
745 5747 5748 1 
746 5501 5502 1 
747 5983 5984 1 
748 241 242 1 
749 247 248 1 
750 23 24 1 
751 255 256 1 
752 763 764 1 
753 29 30 1 
754 233 234 1 
755 989 990 1 
756 513 514 1 
757 1017 1018 1 
758 1013 1014 1 
759 1253 1254 1 
760 1501 1502 1 
761 2269 2270 1 
762 2005 2006 1 
763 1513 1514 1 
764 2015 2016 1 
765 1751 1752 1 
766 2017 2018 1 
767 2753 2754 1 
768 2275 2276 1 
769 2769 2770 1 
770 2755 2756 1 
771 2247 2248 1 
772 3017 3018 1 
773 3009 3010 1 
774 2997 2998 1 
775 3011 3012 1 
776 3985 3986 1 
777 3277 3278 1 
778 3237 3238 1 
779 3501 3502 1 
780 4247 4248 1 
781 4257 4258 1 
782 3743 3744 1 
783 4501 4502 1 
784 4263 4264 1 
785 4015 4016 1 
786 4265 4266 1 
787 5503 5504 1 
788 4505 4506 1 
789 4745 4746 1 
790 4747 4748 1 
791 5515 5516 1 
792 5239 5240 1 
793 5255 5256 1 
794 5499 5500 1 
795 5755 5756 1 
796 5769 5770 1 
797 5763 5764 1 
798 507 508 1 
799 13 14 1 
800 6021 6022 1 
801 271 272 1 
802 501 502 1 
803 521 522 1 
804 25 26 1 
805 269 270 1 
806 515 516 1 
807 529 530 1 
808 3 4 1 
809 1029 1030 1 
810 771 772 1 
811 757 758 1 
812 777 778 1 
813 1255 1256 1 
814 1027 1028 1 
815 1037 1038 1 
816 1765 1766 1 
817 1523 1524 1 
818 2013 2014 1 
819 1261 1262 1 
820 2255 2256 1 
821 2761 2762 1 
822 2025 2026 1 
823 2261 2262 1 
824 2271 2272 1 
825 2771 2772 1 
826 2779 2780 1 
827 2507 2508 1 
828 2759 2760 1 
829 3007 3008 1 
830 2777 2778 1 
831 2511 2512 1 
832 2521 2522 1 
833 3267 3268 1 
834 3269 3270 1 
835 3509 3510 1 
836 3261 3262 1 
837 3029 3030 1 
838 3755 3756 1 
839 3763 3764 1 
840 4277 4278 1 
841 4513 4514 1 
842 4521 4522 1 
843 5035 5036 1 
844 4515 4516 1 
845 4283 4284 1 
846 5023 5024 1 
847 5263 5264 1 
848 4511 4512 1 
849 4777 4778 1 
850 5001 5002 1 
851 4755 4756 1 
852 5007 5008 1 
853 5521 5522 1 
854 5285 5286 1 
855 4765 4766 1 
856 5771 5772 1 
857 251 252 1 
858 5795 5796 1 
859 6039 6040 1 
860 283 284 1 
861 527 528 1 
862 797 798 1 
863 767 768 1 
864 785 786 1 
865 535 536 1 
866 517 518 1 
867 281 282 1 
868 1043 1044 1 
869 1025 1026 1 
870 1019 1020 1 
871 1285 1286 1 
872 2041 2042 1 
873 779 780 1 
874 1537 1538 1 
875 1521 1522 1 
876 1031 1032 1 
877 1753 1754 1 
878 1291 1292 1 
879 1543 1544 1 
880 2283 2284 1 
881 2281 2282 1 
882 2293 2294 1 
883 2027 2028 1 
884 2023 2024 1 
885 2049 2050 1 
886 2519 2520 1 
887 2295 2296 1 
888 3023 3024 1 
889 2263 2264 1 
890 2529 2530 1 
891 3019 3020 1 
892 2791 2792 1 
893 3537 3538 1 
894 3279 3280 1 
895 3281 3282 1 
896 3515 3516 1 
897 3263 3264 1 
898 3025 3026 1 
899 3525 3526 1 
900 3015 3016 1 
901 3513 3514 1 
902 4045 4046 1 
903 4047 4048 1 
904 3797 3798 1 
905 4017 4018 1 
906 4299 4300 1 
907 3789 3790 1 
908 3539 3540 1 
909 4031 4032 1 
910 4271 4272 1 
911 4281 4282 1 
912 4041 4042 1 
913 4533 4534 1 
914 4295 4296 1 
915 4767 4768 1 
916 4261 4262 1 
917 4787 4788 1 
918 5253 5254 1 
919 4771 4772 1 
920 4527 4528 1 
921 4795 4796 1 
922 4783 4784 1 
923 5033 5034 1 
924 4775 4776 1 
925 5277 5278 1 
926 4781 4782 1 
927 5299 5300 1 
928 5775 5776 1 
929 5275 5276 1 
930 5525 5526 1 
931 5261 5262 1 
932 5535 5536 1 
933 5531 5532 1 
934 6025 6026 1 
935 5537 5538 1 
936 5773 5774 1 
937 6033 6034 1 
938 6029 6030 1 
939 5527 5528 1 
940 37 38 1 
941 293 294 1 
942 291 292 1 
943 49 50 1 
944 6065 6066 1 
945 775 776 1 
946 275 276 1 
947 47 48 1 
948 787 788 1 
949 301 302 1 
950 539 540 1 
951 547 548 1 
952 545 546 1 
953 773 774 1 
954 793 794 1 
955 1047 1048 1 
956 1307 1308 1 
957 1309 1310 1 
958 1289 1290 1 
959 1553 1554 1 
960 1533 1534 1 
961 1787 1788 1 
962 1791 1792 1 
963 2053 2054 1 
964 1797 1798 1 
965 1795 1796 1 
966 2031 2032 1 
967 1555 1556 1 
968 1789 1790 1 
969 1783 1784 1 
970 2047 2048 1 
971 2059 2060 1 
972 2045 2046 1 
973 2055 2056 1 
974 1773 1774 1 
975 2021 2022 1 
976 2277 2278 1 
977 2781 2782 1 
978 3309 3310 1 
979 3291 3292 1 
980 3031 3032 1 
981 2783 2784 1 
982 3547 3548 1 
983 3545 3546 1 
984 2803 2804 1 
985 3047 3048 1 
986 3057 3058 1 
987 3535 3536 1 
988 3303 3304 1 
989 3795 3796 1 
990 3783 3784 1 
991 4035 4036 1 
992 3777 3778 1 
993 3793 3794 1 
994 4033 4034 1 
995 3785 3786 1 
996 4273 4274 1 
997 4029 4030 1 
998 4039 4040 1 
999 4793 4794 1 
1000 4785 4786 1 
1001 4545 4546 1 
1002 4293 4294 1 
1003 4549 4550 1 
1004 4535 4536 1 
1005 5053 5054 1 
1006 5797 5798 1 
1007 5313 5314 1 
1008 5551 5552 1 
1009 5549 5550 1 
1010 5311 5312 1 
1011 5293 5294 1 
1012 5781 5782 1 
1013 35 36 1 
1014 6051 6052 1 
1015 6047 6048 1 
1016 537 538 1 
1017 321 322 1 
1018 6057 6058 1 
1019 75 76 1 
1020 783 784 1 
1021 559 560 1 
1022 813 814 1 
1023 295 296 1 
1024 801 802 1 
1025 799 800 1 
1026 1045 1046 1 
1027 1329 1330 1 
1028 1295 1296 1 
1029 1063 1064 1 
1030 1059 1060 1 
1031 1545 1546 1 
1032 1569 1570 1 
1033 1801 1802 1 
1034 1551 1552 1 
1035 2061 2062 1 
1036 2035 2036 1 
1037 1805 1806 1 
1038 2309 2310 1 
1039 2303 2304 1 
1040 2555 2556 1 
1041 2297 2298 1 
1042 2291 2292 1 
1043 2313 2314 1 
1044 2301 2302 1 
1045 2065 2066 1 
1046 2807 2808 1 
1047 2571 2572 1 
1048 3059 3060 1 
1049 2793 2794 1 
1050 2549 2550 1 
1051 2817 2818 1 
1052 3035 3036 1 
1053 3809 3810 1 
1054 3293 3294 1 
1055 3557 3558 1 
1056 3065 3066 1 
1057 3049 3050 1 
1058 3315 3316 1 
1059 2795 2796 1 
1060 3305 3306 1 
1061 3297 3298 1 
1062 3553 3554 1 
1063 4307 4308 1 
1064 3541 3542 1 
1065 4085 4086 1 
1066 4057 4058 1 
1067 4059 4060 1 
1068 4305 4306 1 
1069 4053 4054 1 
1070 4541 4542 1 
1071 4811 4812 1 
1072 4801 4802 1 
1073 4561 4562 1 
1074 4537 4538 1 
1075 4817 4818 1 
1076 4809 4810 1 
1077 5049 5050 1 
1078 4813 4814 1 
1079 5331 5332 1 
1080 4805 4806 1 
1081 5317 5318 1 
1082 4297 4298 1 
1083 4559 4560 1 
1084 5043 5044 1 
1085 5555 5556 1 
1086 5793 5794 1 
1087 5309 5310 1 
1088 5791 5792 1 
1089 5813 5814 1 
1090 5803 5804 1 
1091 5559 5560 1 
1092 6043 6044 1 
1093 6069 6070 1 
1094 5805 5806 1 
1095 6063 6064 1 
1096 67 68 1 
1097 543 544 1 
1098 307 308 1 
1099 329 330 1 
1100 79 80 1 
1101 303 304 1 
1102 555 556 1 
1103 41 42 1 
1104 567 568 1 
1105 551 552 1 
1106 811 812 1 
1107 533 534 1 
1108 827 828 1 
1109 1065 1066 1 
1110 805 806 1 
1111 1313 1314 1 
1112 1559 1560 1 
1113 1301 1302 1 
1114 1315 1316 1 
1115 1311 1312 1 
1116 1809 1810 1 
1117 1823 1824 1 
1118 1829 1830 1 
1119 2319 2320 1 
1120 2069 2070 1 
1121 1825 1826 1 
1122 2051 2052 1 
1123 2579 2580 1 
1124 2587 2588 1 
1125 2311 2312 1 
1126 2315 2316 1 
1127 2815 2816 1 
1128 2327 2328 1 
1129 2805 2806 1 
1130 3053 3054 1 
1131 3327 3328 1 
1132 3317 3318 1 
1133 3325 3326 1 
1134 3067 3068 1 
1135 3075 3076 1 
1136 2821 2822 1 
1137 3559 3560 1 
1138 3791 3792 1 
1139 3803 3804 1 
1140 3829 3830 1 
1141 3815 3816 1 
1142 4065 4066 1 
1143 4075 4076 1 
1144 4049 4050 1 
1145 3801 3802 1 
1146 4543 4544 1 
1147 3811 3812 1 
1148 4333 4334 1 
1149 4313 4314 1 
1150 3805 3806 1 
1151 4309 4310 1 
1152 4807 4808 1 
1153 4069 4070 1 
1154 4567 4568 1 
1155 5065 5066 1 
1156 4563 4564 1 
1157 5303 5304 1 
1158 5581 5582 1 
1159 5329 5330 1 
1160 5565 5566 1 
1161 5321 5322 1 
1162 5573 5574 1 
1163 5563 5564 1 
1164 6053 6054 1 
1165 5809 5810 1 
1166 59 60 1 
1167 6081 6082 1 
1168 57 58 1 
1169 83 84 1 
1170 6097 6098 1 
1171 6075 6076 1 
1172 575 576 1 
1173 819 820 1 
1174 817 818 1 
1175 1061 1062 1 
1176 1087 1088 1 
1177 1317 1318 1 
1178 1069 1070 1 
1179 1339 1340 1 
1180 2073 2074 1 
1181 1567 1568 1 
1182 1565 1566 1 
1183 1577 1578 1 
1184 1335 1336 1 
1185 1813 1814 1 
1186 2085 2086 1 
1187 2071 2072 1 
1188 1819 1820 1 
1189 2063 2064 1 
1190 2593 2594 1 
1191 2097 2098 1 
1192 2559 2560 1 
1193 1827 1828 1 
1194 2329 2330 1 
1195 3061 3062 1 
1196 2837 2838 1 
1197 2567 2568 1 
1198 2827 2828 1 
1199 3313 3314 1 
1200 3085 3086 1 
1201 2843 2844 1 
1202 3813 3814 1 
1203 3323 3324 1 
1204 3587 3588 1 
1205 3063 3064 1 
1206 4311 4312 1 
1207 3563 3564 1 
1208 3333 3334 1 
1209 3835 3836 1 
1210 3583 3584 1 
1211 3823 3824 1 
1212 4329 4330 1 
1213 4337 4338 1 
1214 4073 4074 1 
1215 4341 4342 1 
1216 4587 4588 1 
1217 3827 3828 1 
1218 4831 4832 1 
1219 4797 4798 1 
1220 4569 4570 1 
1221 5083 5084 1 
1222 4565 4566 1 
1223 4835 4836 1 
1224 5069 5070 1 
1225 4575 4576 1 
1226 5077 5078 1 
1227 5079 5080 1 
1228 5075 5076 1 
1229 4577 4578 1 
1230 4583 4584 1 
1231 5337 5338 1 
1232 5333 5334 1 
1233 5811 5812 1 
1234 5571 5572 1 
1235 5821 5822 1 
1236 5825 5826 1 
1237 6087 6088 1 
1238 91 92 1 
1239 5827 5828 1 
1240 5817 5818 1 
1241 6079 6080 1 
1242 99 100 1 
1243 325 326 1 
1244 587 588 1 
1245 353 354 1 
1246 597 598 1 
1247 337 338 1 
1248 839 840 1 
1249 1337 1338 1 
1250 1085 1086 1 
1251 833 834 1 
1252 1583 1584 1 
1253 1107 1108 1 
1254 1591 1592 1 
1255 1097 1098 1 
1256 1587 1588 1 
1257 2075 2076 1 
1258 2107 2108 1 
1259 1839 1840 1 
1260 2077 2078 1 
1261 2089 2090 1 
1262 2343 2344 1 
1263 2577 2578 1 
1264 2831 2832 1 
1265 2321 2322 1 
1266 2081 2082 1 
1267 2851 2852 1 
1268 2835 2836 1 
1269 2591 2592 1 
1270 2349 2350 1 
1271 2595 2596 1 
1272 3073 3074 1 
1273 3095 3096 1 
1274 2859 2860 1 
1275 3551 3552 1 
1276 3087 3088 1 
1277 3335 3336 1 
1278 3603 3604 1 
1279 3361 3362 1 
1280 3077 3078 1 
1281 3825 3826 1 
1282 4089 4090 1 
1283 4327 4328 1 
1284 3599 3600 1 
1285 4351 4352 1 
1286 4343 4344 1 
1287 3859 3860 1 
1288 4833 4834 1 
1289 4347 4348 1 
1290 4589 4590 1 
1291 4323 4324 1 
1292 4605 4606 1 
1293 4829 4830 1 
1294 4599 4600 1 
1295 4331 4332 1 
1296 5095 5096 1 
1297 5089 5090 1 
1298 5575 5576 1 
1299 5349 5350 1 
1300 5081 5082 1 
1301 5115 5116 1 
1302 5085 5086 1 
1303 5585 5586 1 
1304 5589 5590 1 
1305 5831 5832 1 
1306 5597 5598 1 
1307 5595 5596 1 
1308 6107 6108 1 
1309 6085 6086 1 
1310 339 340 1 
1311 593 594 1 
1312 341 342 1 
1313 115 116 1 
1314 97 98 1 
1315 107 108 1 
1316 355 356 1 
1317 855 856 1 
1318 1093 1094 1 
1319 6105 6106 1 
1320 583 584 1 
1321 857 858 1 
1322 595 596 1 
1323 1089 1090 1 
1324 1367 1368 1 
1325 829 830 1 
1326 1343 1344 1 
1327 1593 1594 1 
1328 1859 1860 1 
1329 2093 2094 1 
1330 1607 1608 1 
1331 1597 1598 1 
1332 1841 1842 1 
1333 1595 1596 1 
1334 1863 1864 1 
1335 1847 1848 1 
1336 1833 1834 1 
1337 2599 2600 1 
1338 2367 2368 1 
1339 2109 2110 1 
1340 2357 2358 1 
1341 2605 2606 1 
1342 2857 2858 1 
1343 2607 2608 1 
1344 3347 3348 1 
1345 3093 3094 1 
1346 3345 3346 1 
1347 3605 3606 1 
1348 3353 3354 1 
1349 3619 3620 1 
1350 3593 3594 1 
1351 3847 3848 1 
1352 3841 3842 1 
1353 3101 3102 1 
1354 3615 3616 1 
1355 4105 4106 1 
1356 3849 3850 1 
1357 4093 4094 1 
1358 4107 4108 1 
1359 3845 3846 1 
1360 4365 4366 1 
1361 4099 4100 1 
1362 4853 4854 1 
1363 4345 4346 1 
1364 4841 4842 1 
1365 4875 4876 1 
1366 4601 4602 1 
1367 4595 4596 1 
1368 4843 4844 1 
1369 5107 5108 1 
1370 5103 5104 1 
1371 5365 5366 1 
1372 5101 5102 1 
1373 5105 5106 1 
1374 6103 6104 1 
1375 5351 5352 1 
1376 5599 5600 1 
1377 5621 5622 1 
1378 5605 5606 1 
1379 5839 5840 1 
1380 5613 5614 1 
1381 5833 5834 1 
1382 6091 6092 1 
1383 105 106 1 
1384 5841 5842 1 
1385 333 334 1 
1386 5851 5852 1 
1387 5863 5864 1 
1388 119 120 1 
1389 363 364 1 
1390 6117 6118 1 
1391 123 124 1 
1392 349 350 1 
1393 611 612 1 
1394 1123 1124 1 
1395 619 620 1 
1396 599 600 1 
1397 863 864 1 
1398 871 872 1 
1399 869 870 1 
1400 873 874 1 
1401 1111 1112 1 
1402 843 844 1 
1403 1361 1362 1 
1404 1115 1116 1 
1405 1637 1638 1 
1406 1369 1370 1 
1407 2103 2104 1 
1408 1853 1854 1 
1409 1867 1868 1 
1410 2115 2116 1 
1411 2849 2850 1 
1412 2623 2624 1 
1413 2345 2346 1 
1414 3103 3104 1 
1415 3081 3082 1 
1416 2351 2352 1 
1417 3861 3862 1 
1418 3609 3610 1 
1419 4103 4104 1 
1420 4117 4118 1 
1421 4113 4114 1 
1422 4083 4084 1 
1423 4369 4370 1 
1424 4349 4350 1 
1425 3611 3612 1 
1426 4381 4382 1 
1427 4847 4848 1 
1428 4603 4604 1 
1429 3875 3876 1 
1430 4597 4598 1 
1431 4851 4852 1 
1432 4867 4868 1 
1433 4845 4846 1 
1434 5341 5342 1 
1435 5111 5112 1 
1436 6109 6110 1 
1437 5857 5858 1 
1438 6125 6126 1 
1439 371 372 1 
1440 117 118 1 
1441 635 636 1 
1442 6123 6124 1 
1443 6127 6128 1 
1444 6113 6114 1 
1445 379 380 1 
1446 127 128 1 
1447 365 366 1 
1448 139 140 1 
1449 1105 1106 1 
1450 879 880 1 
1451 1127 1128 1 
1452 1861 1862 1 
1453 1865 1866 1 
1454 1611 1612 1 
1455 1869 1870 1 
1456 1615 1616 1 
1457 1363 1364 1 
1458 1625 1626 1 
1459 2113 2114 1 
1460 1873 1874 1 
1461 2361 2362 1 
1462 2371 2372 1 
1463 2127 2128 1 
1464 2879 2880 1 
1465 2633 2634 1 
1466 2603 2604 1 
1467 3109 3110 1 
1468 3141 3142 1 
1469 3125 3126 1 
1470 3135 3136 1 
1471 3369 3370 1 
1472 3379 3380 1 
1473 3363 3364 1 
1474 2867 2868 1 
1475 3871 3872 1 
1476 3873 3874 1 
1477 3869 3870 1 
1478 4363 4364 1 
1479 4115 4116 1 
1480 4361 4362 1 
1481 4859 4860 1 
1482 4125 4126 1 
1483 4379 4380 1 
1484 4613 4614 1 
1485 4385 4386 1 
1486 4621 4622 1 
1487 4615 4616 1 
1488 4383 4384 1 
1489 4881 4882 1 
1490 5361 5362 1 
1491 4873 4874 1 
1492 5363 5364 1 
1493 5353 5354 1 
1494 5359 5360 1 
1495 5385 5386 1 
1496 5873 5874 1 
1497 5615 5616 1 
1498 5871 5872 1 
1499 5377 5378 1 
1500 6119 6120 1 
1501 5865 5866 1 
1502 6131 6132 1 
1503 6111 6112 1 
1504 5891 5892 1 
1505 5881 5882 1 
1506 5867 5868 1 
1507 373 374 1 
1508 389 390 1 
1509 625 626 1 
1510 643 644 1 
1511 641 642 1 
1512 653 654 1 
1513 1371 1372 1 
1514 1387 1388 1 
1515 1385 1386 1 
1516 1375 1376 1 
1517 2123 2124 1 
1518 1641 1642 1 
1519 2133 2134 1 
1520 2375 2376 1 
1521 2383 2384 1 
1522 2397 2398 1 
1523 2117 2118 1 
1524 2647 2648 1 
1525 2395 2396 1 
1526 2887 2888 1 
1527 2645 2646 1 
1528 3113 3114 1 
1529 2619 2620 1 
1530 3385 3386 1 
1531 3653 3654 1 
1532 3621 3622 1 
1533 3897 3898 1 
1534 3667 3668 1 
1535 4359 4360 1 
1536 3625 3626 1 
1537 3629 3630 1 
1538 4129 4130 1 
1539 4111 4112 1 
1540 4391 4392 1 
1541 3879 3880 1 
1542 3881 3882 1 
1543 4895 4896 1 
1544 4397 4398 1 
1545 4893 4894 1 
1546 4127 4128 1 
1547 4637 4638 1 
1548 5379 5380 1 
1549 5121 5122 1 
1550 4657 4658 1 
1551 4877 4878 1 
1552 5635 5636 1 
1553 5631 5632 1 
1554 5395 5396 1 
1555 6133 6134 1 
1556 153 154 1 
1557 6139 6140 1 
1558 6145 6146 1 
1559 5617 5618 1 
1560 5875 5876 1 
1561 395 396 1 
1562 129 130 1 
1563 165 166 1 
1564 891 892 1 
1565 883 884 1 
1566 387 388 1 
1567 391 392 1 
1568 631 632 1 
1569 645 646 1 
1570 639 640 1 
1571 1383 1384 1 
1572 627 628 1 
1573 647 648 1 
1574 663 664 1 
1575 909 910 1 
1576 405 406 1 
1577 1403 1404 1 
1578 1419 1420 1 
1579 895 896 1 
1580 1133 1134 1 
1581 1627 1628 1 
1582 1397 1398 1 
1583 1649 1650 1 
1584 1147 1148 1 
1585 1651 1652 1 
1586 1657 1658 1 
1587 2149 2150 1 
1588 1879 1880 1 
1589 2147 2148 1 
1590 1917 1918 1 
1591 2129 2130 1 
1592 1889 1890 1 
1593 2385 2386 1 
1594 1885 1886 1 
1595 2379 2380 1 
1596 2651 2652 1 
1597 2871 2872 1 
1598 2903 2904 1 
1599 2641 2642 1 
1600 2909 2910 1 
1601 2881 2882 1 
1602 3397 3398 1 
1603 3645 3646 1 
1604 3155 3156 1 
1605 3887 3888 1 
1606 3901 3902 1 
1607 3381 3382 1 
1608 3377 3378 1 
1609 3387 3388 1 
1610 3641 3642 1 
1611 4131 4132 1 
1612 4143 4144 1 
1613 3903 3904 1 
1614 4643 4644 1 
1615 4139 4140 1 
1616 4889 4890 1 
1617 4649 4650 1 
1618 4891 4892 1 
1619 4635 4636 1 
1620 4907 4908 1 
1621 5147 5148 1 
1622 5653 5654 1 
1623 5399 5400 1 
1624 5915 5916 1 
1625 6137 6138 1 
1626 377 378 1 
1627 6159 6160 1 
1628 6135 6136 1 
1629 893 894 1 
1630 667 668 1 
1631 649 650 1 
1632 397 398 1 
1633 145 146 1 
1634 669 670 1 
1635 903 904 1 
1636 1169 1170 1 
1637 1157 1158 1 
1638 2161 2162 1 
1639 1887 1888 1 
1640 1645 1646 1 
1641 2667 2668 1 
1642 1893 1894 1 
1643 2401 2402 1 
1644 2915 2916 1 
1645 2175 2176 1 
1646 3649 3650 1 
1647 2907 2908 1 
1648 2919 2920 1 
1649 2899 2900 1 
1650 2889 2890 1 
1651 2631 2632 1 
1652 3177 3178 1 
1653 3415 3416 1 
1654 3153 3154 1 
1655 3405 3406 1 
1656 3389 3390 1 
1657 3655 3656 1 
1658 3677 3678 1 
1659 4133 4134 1 
1660 3393 3394 1 
1661 4403 4404 1 
1662 3891 3892 1 
1663 3403 3404 1 
1664 4647 4648 1 
1665 4169 4170 1 
1666 4151 4152 1 
1667 4409 4410 1 
1668 4399 4400 1 
1669 4407 4408 1 
1670 4663 4664 1 
1671 5175 5176 1 
1672 5145 5146 1 
1673 4903 4904 1 
1674 5163 5164 1 
1675 4899 4900 1 
1676 5167 5168 1 
1677 4653 4654 1 
1678 5393 5394 1 
1679 5655 5656 1 
1680 5179 5180 1 
1681 5665 5666 1 
1682 5651 5652 1 
1683 5405 5406 1 
1684 5893 5894 1 
1685 5667 5668 1 
1686 5885 5886 1 
1687 5905 5906 1 
1688 157 158 1 
1689 6169 6170 1 
1690 163 164 1 
1691 155 156 1 
1692 665 666 1 
1693 689 690 1 
1694 907 908 1 
1695 657 658 1 
1696 927 928 1 
1697 1165 1166 1 
1698 939 940 1 
1699 1151 1152 1 
1700 1163 1164 1 
1701 917 918 1 
1702 1183 1184 1 
1703 1415 1416 1 
1704 1667 1668 1 
1705 1423 1424 1 
1706 1427 1428 1 
1707 1919 1920 1 
1708 1675 1676 1 
1709 2177 2178 1 
1710 2659 2660 1 
1711 1903 1904 1 
1712 2411 2412 1 
1713 2173 2174 1 
1714 1921 1922 1 
1715 1905 1906 1 
1716 2179 2180 1 
1717 2405 2406 1 
1718 2671 2672 1 
1719 2415 2416 1 
1720 2679 2680 1 
1721 2653 2654 1 
1722 2921 2922 1 
1723 3435 3436 1 
1724 3165 3166 1 
1725 3163 3164 1 
1726 2911 2912 1 
1727 3651 3652 1 
1728 3179 3180 1 
1729 3173 3174 1 
1730 2929 2930 1 
1731 3157 3158 1 
1732 3657 3658 1 
1733 3663 3664 1 
1734 3395 3396 1 
1735 3933 3934 1 
1736 4411 4412 1 
1737 4667 4668 1 
1738 3913 3914 1 
1739 4457 4458 1 
1740 4149 4150 1 
1741 4915 4916 1 
1742 4937 4938 1 
1743 4929 4930 1 
1744 4925 4926 1 
1745 4413 4414 1 
1746 5165 5166 1 
1747 5401 5402 1 
1748 4921 4922 1 
1749 4675 4676 1 
1750 5423 5424 1 
1751 5155 5156 1 