ITEM: TIMESTEP
40040
ITEM: NUMBER OF ENTRIES
6935
ITEM: BOX BOUNDS pp pp ff
0.0000000000000000e+00 7.2168784000000002e+01
0.0000000000000000e+00 7.2168784000000002e+01
0.0000000000000000e+00 1.2000000000000000e+01
ITEM: ENTRIES index c_1[1] c_1[2] c_1[3]
1 6001 6002 1 
2 6001 6009 2 
3 1024 1023 1 
4 268 1024 3 
5 259 753 2 
6 753 754 1 
7 1042 1244 3 
8 1042 1041 1 
9 1240 6 3 
10 1244 778 3 
11 1244 1243 1 
12 6 5 1 
13 778 1042 3 
14 778 777 1 
15 2001 2002 1 
16 2001 2485 2 
17 2762 1504 3 
18 2762 2761 1 
19 2503 2504 1 
20 2503 2739 2 
21 2496 2536 3 
22 1504 2252 3 
23 1504 1503 1 
24 2252 2732 3 
25 2252 2251 1 
26 2252 2762 3 
27 2732 1504 3 
28 2732 2731 1 
29 2732 2762 3 
30 3510 3010 3 
31 3510 3509 1 
32 3986 3510 3 
33 3986 3985 1 
34 3010 3986 3 
35 3010 3009 1 
36 3512 3526 3 
37 3526 3525 1 
38 3503 3504 1 
39 4286 4514 3 
40 4514 4513 1 
41 3015 3525 2 
42 3504 4022 3 
43 3539 3540 1 
44 4012 3770 3 
45 4524 4523 1 
46 3540 4524 3 
47 4276 4048 3 
48 4276 4275 1 
49 4048 4500 3 
50 4048 4047 1 
51 4500 4276 3 
52 4500 4499 1 
53 4509 4727 2 
54 4757 4758 1 
55 6017 6018 1 
56 5795 5796 1 
57 474 473 1 
58 474 6018 3 
59 6014 6013 1 
60 6014 474 3 
61 6018 6014 3 
62 274 273 1 
63 274 6010 3 
64 512 511 1 
65 512 274 3 
66 512 5766 3 
67 23 24 1 
68 6010 6009 1 
69 6010 5766 3 
70 22 512 3 
71 22 274 3 
72 22 6242 3 
73 5766 5765 1 
74 5766 6242 3 
75 6242 6010 3 
76 6241 6242 1 
77 257 6241 2 
78 257 258 1 
79 488 487 1 
80 26 488 3 
81 526 522 3 
82 526 1022 3 
83 768 1022 3 
84 270 522 3 
85 270 768 3 
86 270 526 3 
87 522 521 1 
88 522 768 3 
89 1021 1022 1 
90 535 1021 2 
91 1525 1526 1 
92 1525 1765 2 
93 1519 2275 2 
94 2962 3256 3 
95 3256 3255 1 
96 2531 2731 2 
97 2511 2512 1 
98 2511 2767 2 
99 2784 2783 1 
100 3290 2784 3 
101 2783 3269 2 
102 3269 3270 1 
103 4011 4012 1 
104 3812 3016 3 
105 3812 3811 1 
106 3798 3812 3 
107 3798 3797 1 
108 3016 3798 3 
109 3016 3015 1 
110 4037 4038 1 
111 5238 6246 3 
112 5238 5237 1 
113 6246 4488 3 
114 6246 6245 1 
115 4488 5238 3 
116 4488 4487 1 
117 4261 4267 2 
118 6012 252 3 
119 6012 6011 1 
120 273 541 2 
121 767 768 1 
122 767 1043 2 
123 1308 760 3 
124 1308 1307 1 
125 1054 1308 3 
126 1054 1053 1 
127 760 1054 3 
128 760 759 1 
129 2024 2023 1 
130 1744 2024 3 
131 1520 2314 3 
132 1520 1519 1 
133 2296 1520 3 
134 2296 2295 1 
135 2314 2296 3 
136 2314 2313 1 
137 2302 2512 3 
138 2512 2530 3 
139 2512 2522 3 
140 3496 3022 3 
141 3022 3021 1 
142 3033 4061 2 
143 3242 3032 3 
144 3242 3241 1 
145 5033 5034 1 
146 5002 4754 3 
147 5002 5001 1 
148 5002 5290 3 
149 4746 5002 3 
150 4746 4745 1 
151 4746 5290 3 
152 5290 4754 3 
153 5290 5289 1 
154 4754 4746 3 
155 4754 4753 1 
156 5277 5278 1 
157 5277 5283 2 
158 5283 5284 1 
159 5987 5988 1 
160 6030 5540 3 
161 6030 6029 1 
162 542 6030 3 
163 542 541 1 
164 5540 542 3 
165 5540 5539 1 
166 5540 5780 3 
167 5780 542 3 
168 5780 5779 1 
169 5780 6030 3 
170 5765 6013 2 
171 554 546 3 
172 554 553 1 
173 546 792 3 
174 546 545 1 
175 792 554 3 
176 792 791 1 
177 545 553 2 
178 47 48 1 
179 47 517 2 
180 540 1044 3 
181 540 539 1 
182 1048 540 3 
183 1048 1047 1 
184 1044 1048 3 
185 1044 1043 1 
186 295 815 2 
187 815 816 1 
188 1512 534 3 
189 534 533 1 
190 290 289 1 
191 794 290 3 
192 1539 1791 2 
193 1281 1541 2 
194 1333 2307 2 
195 1321 1322 1 
196 1321 2545 2 
197 2545 2546 1 
198 2044 2564 3 
199 2044 2043 1 
200 1796 2564 3 
201 1796 1795 1 
202 1796 2776 3 
203 1796 2044 3 
204 2313 2775 2 
205 2563 2817 2 
206 2817 2818 1 
207 2564 2776 3 
208 2564 2563 1 
209 3031 3309 2 
210 3309 3310 1 
211 2782 2781 1 
212 2782 3070 3 
213 2782 3560 3 
214 3070 3796 3 
215 3070 3294 3 
216 4062 4061 1 
217 3560 4062 3 
218 3560 3578 3 
219 3283 3319 2 
220 4034 4033 1 
221 4044 4034 3 
222 4051 4052 1 
223 3803 4051 2 
224 4043 4044 1 
225 3785 3786 1 
226 3785 4043 2 
227 3807 3808 1 
228 4305 4306 1 
229 4567 5331 2 
230 4567 4568 1 
231 4293 4557 2 
232 4294 5524 3 
233 4294 4293 1 
234 4296 4294 3 
235 4296 4295 1 
236 5524 4296 3 
237 5524 5523 1 
238 4558 5032 3 
239 4558 4557 1 
240 4558 5054 3 
241 4558 5254 3 
242 5775 5823 2 
243 6044 538 3 
244 6044 6043 1 
245 538 322 3 
246 538 537 1 
247 322 6044 3 
248 322 321 1 
249 1290 1792 3 
250 1290 1289 1 
251 1290 1542 3 
252 1792 2308 3 
253 1792 1791 1 
254 1542 1792 3 
255 1542 1541 1 
256 1542 2308 3 
257 2308 1290 3 
258 2308 2307 1 
259 1540 1572 3 
260 1540 1539 1 
261 1302 1540 3 
262 1302 1301 1 
263 1572 1302 3 
264 1572 1571 1 
265 1562 1798 3 
266 1798 1797 1 
267 1571 1781 2 
268 1795 2053 2 
269 1797 2021 2 
270 2776 2044 3 
271 2776 2775 1 
272 3291 3299 2 
273 3310 3292 3 
274 3292 3291 1 
275 3284 3048 3 
276 3284 3283 1 
277 3048 3548 3 
278 3048 3047 1 
279 3574 4066 3 
280 3574 3573 1 
281 3558 4066 3 
282 3558 3557 1 
283 3558 3574 3 
284 3306 3558 3 
285 3306 3305 1 
286 3306 3574 3 
287 4066 3306 3 
288 4066 4065 1 
289 4588 3776 3 
290 4588 4587 1 
291 4815 4816 1 
292 4291 4587 2 
293 4568 4768 3 
294 4768 4767 1 
295 4063 4064 1 
296 4767 4783 2 
297 5043 5317 2 
298 64 63 1 
299 6062 64 3 
300 5823 5824 1 
301 523 524 1 
302 5315 5316 1 
303 5805 6043 2 
304 59 6055 2 
305 6055 6056 1 
306 83 307 2 
307 71 799 2 
308 96 1324 3 
309 826 1076 3 
310 826 825 1 
311 70 798 3 
312 70 69 1 
313 70 72 3 
314 314 70 3 
315 314 313 1 
316 798 314 3 
317 798 797 1 
318 72 314 3 
319 72 71 1 
320 72 798 3 
321 1301 1569 2 
322 2599 2600 1 
323 827 1095 2 
324 1782 1781 1 
325 1561 1562 1 
326 1822 1782 3 
327 1096 1095 1 
328 2852 2108 3 
329 2852 2851 1 
330 2108 1840 3 
331 2108 2107 1 
332 1840 2852 3 
333 1840 1839 1 
334 2045 2046 1 
335 2045 3043 2 
336 2828 3604 3 
337 2828 2827 1 
338 3044 2828 3 
339 3044 3043 1 
340 3604 3044 3 
341 3604 3603 1 
342 2035 2036 1 
343 3305 3581 2 
344 3562 3586 3 
345 3562 3561 1 
346 4085 4086 1 
347 4816 4310 3 
348 4310 4309 1 
349 4309 4543 2 
350 5317 5318 1 
351 5328 5327 1 
352 5578 5328 3 
353 6080 6079 1 
354 544 6080 3 
355 5825 5826 1 
356 5825 6063 2 
357 300 76 3 
358 300 299 1 
359 300 324 3 
360 76 562 3 
361 76 75 1 
362 562 300 3 
363 562 561 1 
364 6027 6028 1 
365 6027 6079 2 
366 324 76 3 
367 324 323 1 
368 324 562 3 
369 6054 354 3 
370 6054 6053 1 
371 95 96 1 
372 95 6081 2 
373 6081 6082 1 
374 822 316 3 
375 822 821 1 
376 336 822 3 
377 336 335 1 
378 3038 3037 1 
379 2084 2322 3 
380 2084 2083 1 
381 2322 1576 3 
382 2322 2321 1 
383 2806 2568 3 
384 2568 2567 1 
385 3298 3068 3 
386 3298 3297 1 
387 3298 3814 3 
388 3794 3318 3 
389 3794 3793 1 
390 3829 3830 1 
391 3829 3847 2 
392 3297 3619 2 
393 3324 3848 3 
394 3848 3847 1 
395 3586 3072 3 
396 3586 3585 1 
397 3552 3586 3 
398 3552 3551 1 
399 3552 3562 3 
400 3072 3552 3 
401 3072 3071 1 
402 3072 3562 3 
403 3801 4071 2 
404 4321 4351 2 
405 5059 5060 1 
406 4604 4603 1 
407 5346 4604 3 
408 4544 4798 3 
409 4544 4543 1 
410 91 5327 2 
411 5090 5052 3 
412 5052 5051 1 
413 315 6057 2 
414 841 843 2 
415 1091 1103 2 
416 2063 2064 1 
417 842 841 1 
418 1582 842 3 
419 1599 2831 2 
420 2805 2806 1 
421 3081 3082 1 
422 3354 3353 1 
423 2834 3354 3 
424 4337 4338 1 
425 3606 3864 3 
426 3606 3605 1 
427 3864 3092 3 
428 3864 3863 1 
429 4074 3802 3 
430 4074 4073 1 
431 3802 5062 3 
432 3802 3801 1 
433 5062 4074 3 
434 5062 5061 1 
435 4355 4603 2 
436 5345 5346 1 
437 5079 5345 2 
438 5562 4876 3 
439 5562 5561 1 
440 4876 5080 3 
441 4876 4875 1 
442 5334 5098 3 
443 5334 5333 1 
444 5094 5348 3 
445 5094 5093 1 
446 5102 5094 3 
447 5102 5101 1 
448 5348 5102 3 
449 5348 5347 1 
450 5573 5574 1 
451 5051 5573 2 
452 4339 4340 1 
453 5637 5638 1 
454 861 1347 2 
455 1090 1086 3 
456 1090 1089 1 
457 1086 1328 3 
458 1086 1085 1 
459 1328 1090 3 
460 1328 1327 1 
461 1338 1114 3 
462 1338 1337 1 
463 812 1338 3 
464 812 811 1 
465 812 1634 3 
466 1634 1338 3 
467 1634 1633 1 
468 2077 2078 1 
469 847 848 1 
470 847 2077 2 
471 1114 812 3 
472 1114 1113 1 
473 1114 1634 3 
474 2131 2132 1 
475 2131 2135 2 
476 2611 2612 1 
477 2611 3083 2 
478 2846 2352 3 
479 3092 3606 3 
480 3092 3091 1 
481 3591 3592 1 
482 3593 3863 2 
483 4609 4610 1 
484 3111 3112 1 
485 3111 3591 2 
486 4105 4106 1 
487 4105 4609 2 
488 3833 3834 1 
489 3833 4571 2 
490 5080 5562 3 
491 5080 5079 1 
492 4595 5093 2 
493 5135 5136 1 
494 5135 5347 2 
495 4826 4582 3 
496 4582 4581 1 
497 4825 4826 1 
498 5597 5598 1 
499 348 5866 3 
500 348 347 1 
501 43 44 1 
502 5866 6074 3 
503 5866 5865 1 
504 628 1148 3 
505 876 1350 3 
506 876 875 1 
507 858 876 3 
508 858 857 1 
509 1148 1147 1 
510 1350 858 3 
511 1350 1349 1 
512 1355 1356 1 
513 627 628 1 
514 1079 1080 1 
515 1079 1355 2 
516 1597 1619 2 
517 862 1108 3 
518 862 861 1 
519 2136 2092 3 
520 2136 2135 1 
521 2361 2362 1 
522 2092 2128 3 
523 2092 2091 1 
524 2826 2862 3 
525 2826 2825 1 
526 2862 3084 3 
527 2862 2861 1 
528 3084 2826 3 
529 3084 3083 1 
530 2363 2861 2 
531 3594 3593 1 
532 3366 3594 3 
533 2842 4350 3 
534 2842 2841 1 
535 3088 2842 3 
536 3088 3087 1 
537 4350 3088 3 
538 4350 4349 1 
539 4117 4118 1 
540 4117 4341 2 
541 4341 4342 1 
542 4821 4822 1 
543 4569 4575 2 
544 4121 4122 1 
545 4121 4607 2 
546 4599 4600 1 
547 4599 4875 2 
548 4600 4596 3 
549 5136 5368 3 
550 5881 6109 2 
551 6109 6110 1 
552 347 5863 2 
553 361 362 1 
554 653 1147 2 
555 905 906 1 
556 6144 5616 3 
557 2134 1620 3 
558 1620 1619 1 
559 1118 1117 1 
560 1605 1869 2 
561 1869 1870 1 
562 1131 1139 2 
563 1132 3134 3 
564 1132 1131 1 
565 3134 2372 3 
566 3134 3133 1 
567 2372 1132 3 
568 2372 2371 1 
569 2619 2620 1 
570 2619 2853 2 
571 2336 3124 3 
572 2336 2335 1 
573 3884 2336 3 
574 3884 3883 1 
575 3124 3884 3 
576 3124 3123 1 
577 3371 3372 1 
578 3875 3876 1 
579 4369 4869 2 
580 4592 4890 3 
581 4592 4591 1 
582 4890 5354 3 
583 4890 4889 1 
584 5354 4592 3 
585 5354 5353 1 
586 5864 5863 1 
587 362 5864 3 
588 114 113 1 
589 6110 114 3 
590 370 654 3 
591 370 369 1 
592 370 616 3 
593 370 864 3 
594 864 616 3 
595 864 863 1 
596 616 654 3 
597 616 615 1 
598 654 864 3 
599 654 653 1 
600 1133 1134 1 
601 1133 6121 2 
602 1136 1135 1 
603 1134 1136 3 
604 2114 3374 3 
605 2114 2113 1 
606 2606 2114 3 
607 2606 2605 1 
608 3374 2606 3 
609 3374 3373 1 
610 2625 2647 2 
611 2872 2871 1 
612 2402 2872 3 
613 3861 3862 1 
614 3136 2878 3 
615 2878 2877 1 
616 3135 3909 2 
617 3135 3136 1 
618 3144 3376 3 
619 3144 3143 1 
620 3376 4146 3 
621 3376 3375 1 
622 4146 3144 3 
623 4146 4145 1 
624 3375 3883 2 
625 3613 4633 2 
626 3614 3613 1 
627 5356 5122 3 
628 5356 5355 1 
629 4852 4394 3 
630 4852 4851 1 
631 5122 4120 3 
632 5122 5121 1 
633 153 154 1 
634 153 4645 2 
635 5623 5895 2 
636 6123 6124 1 
637 5883 5884 1 
638 132 384 3 
639 132 131 1 
640 132 6122 3 
641 384 902 3 
642 384 383 1 
643 6122 384 3 
644 6122 6121 1 
645 902 132 3 
646 902 901 1 
647 902 6122 3 
648 615 1431 2 
649 1431 1432 1 
650 141 143 2 
651 1650 1649 1 
652 1662 1650 3 
653 622 1144 3 
654 1144 1143 1 
655 1898 1897 1 
656 1624 1898 3 
657 887 888 1 
658 887 1655 2 
659 1623 1624 1 
660 1853 1854 1 
661 1907 2373 2 
662 1391 2605 2 
663 1670 1364 3 
664 1670 1669 1 
665 1364 1896 3 
666 1364 1363 1 
667 1895 2401 2 
668 2401 2402 1 
669 2871 2907 2 
670 2887 2888 1 
671 4634 4633 1 
672 3389 3390 1 
673 3389 4659 2 
674 4396 4634 3 
675 3892 4660 3 
676 4660 4659 1 
677 3678 4136 3 
678 3678 3677 1 
679 4136 3916 3 
680 4136 4135 1 
681 3916 3678 3 
682 3916 3915 1 
683 4398 4852 3 
684 4398 4397 1 
685 4374 4852 3 
686 4374 4373 1 
687 4374 4394 3 
688 4374 4398 3 
689 5121 5143 2 
690 4394 4398 3 
691 4394 4393 1 
692 4393 5131 2 
693 5131 5132 1 
694 4361 4362 1 
695 4877 4931 2 
696 5896 5378 3 
697 5896 5895 1 
698 1163 1164 1 
699 6148 416 3 
700 6148 6147 1 
701 416 144 3 
702 416 415 1 
703 416 642 3 
704 144 6148 3 
705 144 143 1 
706 642 144 3 
707 642 641 1 
708 642 6148 3 
709 151 152 1 
710 151 641 2 
711 1681 1682 1 
712 940 2130 3 
713 940 939 1 
714 940 1176 3 
715 2130 1644 3 
716 2130 2129 1 
717 1176 2130 3 
718 1176 1175 1 
719 1176 1644 3 
720 1395 1396 1 
721 1395 1649 2 
722 1644 940 3 
723 1644 1643 1 
724 1908 1907 1 
725 2148 1908 3 
726 1896 1670 3 
727 1896 1895 1 
728 2908 2907 1 
729 2664 2908 3 
730 3631 3679 2 
731 3679 3680 1 
732 2889 3681 2 
733 2889 2890 1 
734 2655 3151 2 
735 3707 3708 1 
736 4153 4154 1 
737 4412 4411 1 
738 3390 4412 3 
739 4134 4133 1 
740 3378 4134 3 
741 5154 5144 3 
742 5144 5143 1 
743 4661 4662 1 
744 4661 4929 2 
745 4195 5155 2 
746 4196 4195 1 
747 4929 4930 1 
748 5393 5394 1 
749 5893 5894 1 
750 4390 4389 1 
751 5370 4390 3 
752 163 6181 2 
753 422 1152 3 
754 422 421 1 
755 934 422 3 
756 934 933 1 
757 934 1152 3 
758 1152 656 3 
759 1152 1151 1 
760 656 422 3 
761 656 655 1 
762 656 934 3 
763 415 421 2 
764 3401 3435 2 
765 3401 3402 1 
766 3435 3436 1 
767 1903 1904 1 
768 2663 2683 2 
769 2663 2664 1 
770 3402 2900 3 
771 2900 2899 1 
772 3649 3650 1 
773 2899 3673 2 
774 2933 3649 2 
775 2656 2934 3 
776 2656 2655 1 
777 3174 2656 3 
778 3174 3173 1 
779 2934 3174 3 
780 2934 2933 1 
781 3682 2428 3 
782 3682 3681 1 
783 3632 3682 3 
784 3632 3631 1 
785 2428 3632 3 
786 2428 2427 1 
787 4444 4458 3 
788 4458 4457 1 
789 4168 4428 3 
790 4168 4167 1 
791 5424 5423 1 
792 5186 5174 3 
793 5186 5185 1 
794 5174 5446 3 
795 5174 5173 1 
796 4930 5174 3 
797 4906 5186 3 
798 4906 4930 3 
799 5894 5424 3 
800 5446 5186 3 
801 5446 5445 1 
802 5926 5642 3 
803 5926 5925 1 
804 404 5926 3 
805 404 403 1 
806 4913 5165 2 
807 5642 404 3 
808 5642 5641 1 
809 5165 5166 1 
810 171 172 1 
811 5928 5920 3 
812 5928 5927 1 
813 6182 5928 3 
814 6182 6181 1 
815 5920 6182 3 
816 5920 5919 1 
817 1189 1190 1 
818 673 951 2 
819 6213 6214 1 
820 952 460 3 
821 952 951 1 
822 687 1179 2 
823 657 683 2 
824 671 921 2 
825 921 922 1 
826 954 1208 3 
827 954 953 1 
828 954 1174 3 
829 1174 1208 3 
830 1174 1173 1 
831 1174 1182 3 
832 1182 954 3 
833 1182 1181 1 
834 1208 1182 3 
835 1208 1207 1 
836 2466 1926 3 
837 1926 1925 1 
838 1894 1922 3 
839 1894 1893 1 
840 1700 1894 3 
841 1700 1699 1 
842 1922 1700 3 
843 1922 1921 1 
844 1165 1166 1 
845 1165 1925 2 
846 2194 2444 3 
847 2194 2193 1 
848 2691 2692 1 
849 2902 2684 3 
850 2684 2683 1 
851 3176 3175 1 
852 2160 3176 3 
853 3177 3178 1 
854 3674 3673 1 
855 3172 3674 3 
856 3657 3658 1 
857 3712 3928 3 
858 3712 3711 1 
859 3911 3912 1 
860 4443 4444 1 
861 5160 4414 3 
862 5160 5159 1 
863 5413 5659 2 
864 5673 5674 1 
865 5415 5416 1 
866 5415 5673 2 
867 5660 5956 3 
868 5660 5659 1 
869 5444 5660 3 
870 5444 5443 1 
871 5956 5444 3 
872 5956 5955 1 
873 170 169 1 
874 190 170 3 
875 214 213 1 
876 439 665 2 
877 221 222 1 
878 177 1189 2 
879 178 177 1 
880 222 178 3 
881 702 952 3 
882 702 701 1 
883 460 702 3 
884 460 459 1 
885 460 692 3 
886 459 935 2 
887 692 702 3 
888 692 691 1 
889 692 952 3 
890 701 1173 2 
891 936 682 3 
892 936 935 1 
893 672 936 3 
894 672 671 1 
895 672 710 3 
896 710 936 3 
897 710 709 1 
898 682 672 3 
899 682 681 1 
900 682 710 3 
901 681 961 2 
902 1453 1665 2 
903 1665 1666 1 
904 2217 2218 1 
905 2185 2186 1 
906 2185 2193 2 
907 2444 2950 3 
908 2444 2443 1 
909 2929 2930 1 
910 3412 3411 1 
911 3928 3458 3 
912 3928 3927 1 
913 3476 3412 3 
914 3458 3712 3 
915 3458 3457 1 
916 3457 3683 2 
917 3421 3422 1 
918 3421 3711 2 
919 3683 3684 1 
920 3974 3738 3 
921 3738 3737 1 
922 3973 3974 1 
923 3973 4687 2 
924 3929 4667 2 
925 3929 3930 1 
926 4216 4684 3 
927 4216 4215 1 
928 4216 4424 3 
929 4162 4216 3 
930 4162 4161 1 
931 4162 4424 3 
932 3947 4709 2 
933 4424 4684 3 
934 4424 4423 1 
935 4684 4162 3 
936 4684 4683 1 
937 4683 4945 2 
938 5458 5224 3 
939 5191 5192 1 
940 4946 4945 1 
941 5457 5458 1 
942 4697 5457 2 
943 5190 4946 3 
944 5674 5936 3 
945 5936 5935 1 
946 5675 5676 1 
947 5206 5964 3 
948 5206 5205 1 
949 5206 5938 3 
950 6174 5206 3 
951 6174 6173 1 
952 5964 6174 3 
953 5964 5963 1 
954 423 5933 2 
955 5938 5964 3 
956 5938 5937 1 
957 5938 6174 3 
958 196 194 3 
959 194 193 1 
960 5967 6173 2 
961 5968 706 3 
962 5968 5967 1 
963 706 180 3 
964 706 705 1 
965 461 462 1 
966 6196 406 3 
967 6198 5960 3 
968 6198 6197 1 
969 6195 6196 1 
970 715 716 1 
971 715 5959 2 
972 1185 1186 1 
973 1215 1216 1 
974 1964 1720 3 
975 1964 1963 1 
976 1942 1964 3 
977 1942 1941 1 
978 1720 1719 1 
979 1704 1172 3 
980 1950 2440 3 
981 1950 1949 1 
982 2440 2926 3 
983 2440 2439 1 
984 2196 2208 3 
985 2196 2702 3 
986 2196 3432 3 
987 2924 2923 1 
988 3202 2924 3 
989 2923 2947 2 
990 3958 3946 3 
991 3958 3957 1 
992 2948 3958 3 
993 2948 2947 1 
994 2948 3450 3 
995 2948 3946 3 
996 3946 3450 3 
997 3946 3945 1 
998 3450 3958 3 
999 3450 3449 1 
1000 3661 3927 2 
1001 3449 3941 2 
1002 4201 4202 1 
1003 3702 3701 1 
1004 3422 3702 3 
1005 4956 3932 3 
1006 4956 4955 1 
1007 3694 4956 3 
1008 3694 3693 1 
1009 3694 3934 3 
1010 3694 3932 3 
1011 3932 3934 3 
1012 3932 3931 1 
1013 3934 4956 3 
1014 3934 3933 1 
1015 3948 3947 1 
1016 4968 3948 3 
1017 4681 4682 1 
1018 4681 4715 2 
1019 4694 4212 3 
1020 4694 4693 1 
1021 3686 4694 3 
1022 3686 3685 1 
1023 4215 4437 2 
1024 4212 3686 3 
1025 4212 4211 1 
1026 4967 4968 1 
1027 5224 5223 1 
1028 4161 5199 2 
1029 5717 5718 1 
1030 5718 5678 3 
1031 5678 5677 1 
1032 5932 5966 3 
1033 5932 5931 1 
1034 5932 5934 3 
1035 5966 204 3 
1036 5966 5965 1 
1037 5934 5966 3 
1038 5934 5933 1 
1039 204 5932 3 
1040 204 203 1 
1041 204 5934 3 
1042 5463 5937 2 
1043 6163 6164 1 
1044 5441 5442 1 
1045 1228 1222 3 
1046 968 1710 3 
1047 968 967 1 
1048 720 968 3 
1049 720 719 1 
1050 1999 2973 2 
1051 2973 2974 1 
1052 3431 3432 1 
1053 2211 2461 2 
1054 2195 2196 1 
1055 2195 2207 2 
1056 3701 3975 2 
1057 3459 3460 1 
1058 3459 3957 2 
1059 3975 3976 1 
1060 3944 3714 3 
1061 3714 3713 1 
1062 4435 4436 1 
1063 3961 4435 2 
1064 4438 4988 3 
1065 4438 4437 1 
1066 4988 4206 3 
1067 4988 4987 1 
1068 4206 4438 3 
1069 4206 4205 1 
1070 4209 5451 2 
1071 5724 5714 3 
1072 5714 5713 1 
1073 466 5464 3 
1074 466 465 1 
1075 5974 226 3 
1076 5974 5973 1 
1077 242 5974 3 
1078 242 226 3 
1079 242 241 1 
1080 731 749 2 
1081 1725 1726 1 
1082 1488 1487 1 
1083 1476 1488 3 
1084 1222 1221 1 
1085 1211 1212 1 
1086 1211 1221 2 
1087 2236 2730 3 
1088 2236 2235 1 
1089 1253 1981 2 
1090 2461 2462 1 
1091 2453 2454 1 
1092 2453 3519 2 
1093 4479 4713 2 
1094 4969 4987 2 
1095 4259 4721 2 
1096 4982 4992 3 
1097 4982 4981 1 
1098 4714 4982 3 
1099 4714 4713 1 
1100 4992 4714 3 
1101 4992 4991 1 
1102 231 5973 2 
1103 226 236 3 
1104 226 225 1 
1105 236 242 3 
1106 236 5974 3 
1107 236 235 1 
1108 1951 1952 1 
1109 217 1951 2 
1110 1475 1476 1 
1111 1247 1475 2 
1112 1223 1257 2 
1113 469 737 2 
1114 1730 736 3 
1115 1730 1729 1 
1116 736 1224 3 
1117 736 735 1 
1118 1224 1730 3 
1119 1224 1223 1 
1120 1485 1486 1 
1121 2229 2230 1 
1122 1729 2229 2 
1123 1219 1497 2 
1124 1993 1994 1 
1125 1993 2729 2 
1126 1497 1498 1 
1127 1491 1735 2 
1128 1994 2240 3 
1129 2240 2239 1 
1130 1498 1994 3 
1131 1498 2240 3 
1132 1718 2240 3 
1133 1473 1474 1 
1134 2490 2489 1 
1135 2248 2490 3 
1136 2247 2248 1 
1137 3465 3466 1 
1138 3465 3749 2 
1139 3749 3750 1 
1140 4464 4463 1 
1141 3762 4464 3 
1142 4983 4984 1 
1143 4983 4253 2 
1144 4015 4016 1 
1145 4480 4260 3 
1146 4480 4479 1 
1147 4970 4480 3 
1148 4970 4969 1 
1149 4260 4970 3 
1150 4260 4259 1 
1151 5243 5244 1 
1152 5995 5996 1 
1153 4731 5243 2 
1154 13 229 2 
1155 6000 5456 3 
1156 6000 5999 1 
1157 5456 4998 3 
1158 5456 5455 1 
1159 5732 266 3 
1160 4998 6000 3 
1161 4998 4997 1 
1162 2 4998 3 
1163 2 1 1 
1164 2 6000 3 
1165 2 5456 3 
1166 6025 6026 1 
1167 508 5982 3 
1168 508 507 1 
1169 266 265 1 
1170 5982 254 3 
1171 5982 5981 1 
1172 254 508 3 
1173 254 253 1 
1174 245 246 1 
1175 245 1005 2 
1176 750 734 3 
1177 750 749 1 
1178 734 1004 3 
1179 734 733 1 
1180 1004 750 3 
1181 1004 1003 1 
1182 5 733 2 
1183 1241 1242 1 
1184 1013 1241 2 
1185 1537 1538 1 
1186 1538 2506 3 
1187 2536 2535 1 
1188 2251 2489 2 
1189 3491 3492 1 
1190 4223 4224 1 
1191 4016 4232 3 
1192 4735 4736 1 
1193 4493 4735 2 
1194 5489 5789 2 
1195 4762 5242 3 
1196 4762 4761 1 
1197 267 268 1 
1198 6016 520 3 
1199 6016 6015 1 
1200 5784 6038 3 
1201 6038 6037 1 
1202 9 10 1 
1203 9 267 2 
1204 520 30 3 
1205 520 519 1 
1206 757 758 1 
1207 30 6016 3 
1208 30 29 1 
1209 515 516 1 
1210 6002 244 3 
1211 244 243 1 
1212 516 284 3 
1213 754 756 3 
1214 756 755 1 
1215 1239 1240 1 
1216 485 1239 2 
1217 1030 782 3 
1218 1030 1029 1 
1219 782 1276 3 
1220 782 781 1 
1221 1012 782 3 
1222 1012 1011 1 
1223 1012 1030 3 
1224 1012 1276 3 
1225 1276 1030 3 
1226 1276 1275 1 
1227 233 269 2 
1228 269 270 1 
1229 284 283 1 
1230 297 298 1 
1231 297 1749 2 
1232 1011 1483 2 
1233 1483 1484 1 
1234 981 1235 2 
1235 981 982 1 
1236 982 1974 3 
1237 1279 2019 2 
1238 1758 1020 3 
1239 1758 1757 1 
1240 1747 1757 2 
1241 1019 1779 2 
1242 2002 2486 3 
1243 2486 2485 1 
1244 2486 2774 3 
1245 1723 2253 2 
1246 1748 1766 3 
1247 1748 1747 1 
1248 1724 1748 3 
1249 1724 1723 1 
1250 1724 2012 3 
1251 2011 2741 2 
1252 2741 2742 1 
1253 2785 2786 1 
1254 2270 2010 3 
1255 2270 2269 1 
1256 1751 1752 1 
1257 1751 2769 2 
1258 2495 2496 1 
1259 3223 3224 1 
1260 2276 2018 3 
1261 2276 2275 1 
1262 2754 2276 3 
1263 2754 2753 1 
1264 2018 2508 3 
1265 2018 2017 1 
1266 2018 2754 3 
1267 2508 2276 3 
1268 2508 2507 1 
1269 2508 2754 3 
1270 1996 1995 1 
1271 2746 1996 3 
1272 2992 2778 3 
1273 2992 2991 1 
1274 2992 3002 3 
1275 2778 3006 3 
1276 2778 2777 1 
1277 3002 2778 3 
1278 3002 3001 1 
1279 3002 3006 3 
1280 3006 2992 3 
1281 3006 3005 1 
1282 3261 3545 2 
1283 3262 3788 3 
1284 3262 3261 1 
1285 2518 3262 3 
1286 2518 2517 1 
1287 2518 3788 3 
1288 3788 2262 3 
1289 3788 3787 1 
1290 2262 3262 3 
1291 2262 2261 1 
1292 2262 2518 3 
1293 3514 3760 3 
1294 3514 3513 1 
1295 3760 3238 3 
1296 3760 3759 1 
1297 3003 3027 2 
1298 3238 3514 3 
1299 3238 3237 1 
1300 3756 3004 3 
1301 3756 3755 1 
1302 3030 3756 3 
1303 3030 3029 1 
1304 3004 3030 3 
1305 3004 3003 1 
1306 3511 3512 1 
1307 3303 3304 1 
1308 4022 4021 1 
1309 3770 3769 1 
1310 3992 3502 3 
1311 3502 3501 1 
1312 4017 4285 2 
1313 3505 3765 2 
1314 5046 5045 1 
1315 4245 4529 2 
1316 4235 4236 1 
1317 4235 4461 2 
1318 4785 4786 1 
1319 4529 4530 1 
1320 4498 4728 3 
1321 4498 4497 1 
1322 4268 4498 3 
1323 4268 4267 1 
1324 4744 3766 3 
1325 4744 4743 1 
1326 4728 4268 3 
1327 4728 4727 1 
1328 4786 5046 3 
1329 4275 5525 2 
1330 4724 4723 1 
1331 4007 4008 1 
1332 4007 4785 2 
1333 4999 5237 2 
1334 4047 4499 2 
1335 4758 4724 3 
1336 5259 5260 1 
1337 5259 5737 2 
1338 4515 4741 2 
1339 5249 5250 1 
1340 5249 5481 2 
1341 5481 5482 1 
1342 5526 5738 3 
1343 5526 5525 1 
1344 5526 5744 3 
1345 5744 5738 3 
1346 5744 5743 1 
1347 5738 4494 3 
1348 5738 5737 1 
1349 5520 5519 1 
1350 5496 5520 3 
1351 4510 5530 3 
1352 4510 4509 1 
1353 5507 5508 1 
1354 4494 5744 3 
1355 4494 4493 1 
1356 4494 5526 3 
1357 5508 4994 3 
1358 5530 4776 3 
1359 5530 5529 1 
1360 5494 5750 3 
1361 5750 5749 1 
1362 4729 4993 2 
1363 4755 5501 2 
1364 5505 5506 1 
1365 5499 5500 1 
1366 5499 5505 2 
1367 5748 5734 3 
1368 5748 5747 1 
1369 5748 6232 3 
1370 5734 5472 3 
1371 5734 5733 1 
1372 5734 6232 3 
1373 6232 5472 3 
1374 6232 6231 1 
1375 5472 5748 3 
1376 5472 5471 1 
1377 5767 5768 1 
1378 5512 6020 3 
1379 5512 5511 1 
1380 5741 5751 2 
1381 5513 5514 1 
1382 5783 5795 2 
1383 5783 5784 1 
1384 16 6034 3 
1385 16 15 1 
1386 6034 500 3 
1387 6034 6033 1 
1388 500 16 3 
1389 500 499 1 
1390 5754 5518 3 
1391 5754 5753 1 
1392 5518 490 3 
1393 5518 5517 1 
1394 490 5754 3 
1395 490 489 1 
1396 29 251 2 
1397 247 5753 2 
1398 21 22 1 
1399 21 511 2 
1400 25 26 1 
1401 525 526 1 
1402 258 38 3 
1403 521 1067 2 
1404 501 502 1 
1405 788 514 3 
1406 502 1022 3 
1407 38 37 1 
1408 3 747 2 
1409 781 1523 2 
1410 759 777 2 
1411 536 1002 3 
1412 536 535 1 
1413 536 1758 3 
1414 1002 1020 3 
1415 1002 1001 1 
1416 1002 1758 3 
1417 1020 536 3 
1418 1020 1019 1 
1419 1056 1266 3 
1420 1056 1055 1 
1421 1266 2014 3 
1422 1266 1265 1 
1423 2014 1056 3 
1424 2014 2013 1 
1425 1034 2020 3 
1426 1034 1033 1 
1427 2020 1780 3 
1428 2020 2019 1 
1429 1780 1034 3 
1430 1780 1779 1 
1431 1746 1034 3 
1432 1746 1745 1 
1433 1746 1780 3 
1434 1746 2020 3 
1435 2049 2050 1 
1436 2012 1748 3 
1437 2012 2011 1 
1438 2773 2774 1 
1439 1766 1724 3 
1440 1766 1765 1 
1441 1766 2012 3 
1442 1265 2273 2 
1443 2297 2298 1 
1444 2294 2266 3 
1445 2294 2293 1 
1446 2525 2785 2 
1447 2525 2526 1 
1448 2770 2294 3 
1449 2770 2769 1 
1450 2266 2770 3 
1451 2266 2265 1 
1452 2274 2266 3 
1453 2274 2273 1 
1454 2274 2294 3 
1455 2274 2770 3 
1456 2961 2962 1 
1457 2982 2981 1 
1458 2740 2739 1 
1459 2740 2982 3 
1460 2504 2740 3 
1461 2504 2982 3 
1462 2526 2764 3 
1463 2764 2763 1 
1464 2760 2759 1 
1465 3020 2798 3 
1466 3020 3019 1 
1467 3020 3546 3 
1468 3020 3026 3 
1469 3546 3026 3 
1470 3546 3545 1 
1471 3985 4257 2 
1472 3268 2768 3 
1473 3268 3267 1 
1474 4257 4258 1 
1475 3026 2798 3 
1476 3026 3025 1 
1477 2798 3546 3 
1478 2798 2797 1 
1479 3018 2760 3 
1480 2768 2792 3 
1481 2768 2767 1 
1482 2261 2771 2 
1483 2792 3268 3 
1484 2792 2791 1 
1485 3522 3521 1 
1486 4258 3522 3 
1487 3271 3495 2 
1488 3495 3496 1 
1489 3549 3779 2 
1490 3264 3538 3 
1491 3264 3263 1 
1492 3264 3272 3 
1493 3272 3034 3 
1494 3272 3271 1 
1495 3272 3538 3 
1496 3034 3264 3 
1497 3034 3033 1 
1498 3550 3549 1 
1499 3790 3534 3 
1500 3790 3789 1 
1501 3538 3034 3 
1502 3538 3537 1 
1503 3304 3550 3 
1504 3029 4023 2 
1505 3809 3810 1 
1506 3764 3778 3 
1507 3543 3811 2 
1508 3778 3777 1 
1509 3013 4513 2 
1510 4523 5035 2 
1511 4810 4056 3 
1512 4056 4055 1 
1513 3771 3772 1 
1514 3771 4723 2 
1515 4793 4794 1 
1516 4271 4743 2 
1517 4788 4246 3 
1518 4788 4787 1 
1519 4246 4526 3 
1520 4246 4245 1 
1521 4246 4274 3 
1522 4274 4788 3 
1523 4274 4273 1 
1524 4274 4526 3 
1525 4526 4788 3 
1526 4526 4525 1 
1527 4525 4789 2 
1528 4775 5011 2 
1529 5011 5012 1 
1530 4273 5297 2 
1531 4776 4510 3 
1532 4776 4775 1 
1533 4262 4516 3 
1534 4262 4261 1 
1535 4773 5013 2 
1536 5013 5014 1 
1537 4780 4262 3 
1538 4780 4779 1 
1539 4516 4780 3 
1540 4516 4515 1 
1541 5495 5496 1 
1542 5269 5495 2 
1543 5001 5263 2 
1544 4994 4993 1 
1545 5014 5502 3 
1546 5502 5501 1 
1547 5015 5519 2 
1548 5533 5534 1 
1549 5762 5004 3 
1550 5762 5761 1 
1551 4766 5762 3 
1552 4766 4765 1 
1553 5004 4766 3 
1554 5004 5003 1 
1555 5774 6024 3 
1556 5774 5773 1 
1557 5800 5774 3 
1558 5800 5799 1 
1559 5800 6032 3 
1560 6032 5774 3 
1561 6032 6031 1 
1562 6024 5800 3 
1563 6024 6023 1 
1564 6024 6032 3 
1565 15 499 2 
1566 252 5772 3 
1567 252 251 1 
1568 5772 6012 3 
1569 5772 5771 1 
1570 34 248 3 
1571 34 33 1 
1572 34 6022 3 
1573 11 6051 2 
1574 6051 6052 1 
1575 33 501 2 
1576 6022 248 3 
1577 6022 6021 1 
1578 12 34 3 
1579 12 11 1 
1580 12 6022 3 
1581 37 6039 2 
1582 1067 1068 1 
1583 6039 6040 1 
1584 279 280 1 
1585 514 513 1 
1586 747 748 1 
1587 786 518 3 
1588 786 785 1 
1589 518 296 3 
1590 518 517 1 
1591 296 786 3 
1592 296 295 1 
1593 281 282 1 
1594 281 785 2 
1595 1032 1038 3 
1596 1032 1031 1 
1597 772 1032 3 
1598 772 771 1 
1599 1038 772 3 
1600 1038 1037 1 
1601 1031 1039 2 
1602 1018 1040 3 
1603 1018 1017 1 
1604 1018 1534 3 
1605 1040 1274 3 
1606 1040 1039 1 
1607 1040 1534 3 
1608 1274 1018 3 
1609 1274 1273 1 
1610 1536 1268 3 
1611 1536 1535 1 
1612 1278 1268 3 
1613 1278 1277 1 
1614 1278 1760 3 
1615 1278 1536 3 
1616 1760 1536 3 
1617 1760 1759 1 
1618 1534 1274 3 
1619 1534 1533 1 
1620 1268 1760 3 
1621 1268 1267 1 
1622 1769 1770 1 
1623 1802 2062 3 
1624 1802 1801 1 
1625 1284 1528 3 
1626 1284 1283 1 
1627 1284 1802 3 
1628 2062 1284 3 
1629 2062 2061 1 
1630 1292 2284 3 
1631 1292 1291 1 
1632 1778 1292 3 
1633 1778 1777 1 
1634 1528 2062 3 
1635 1528 1527 1 
1636 1528 1802 3 
1637 1743 1744 1 
1638 1550 1530 3 
1639 1550 1549 1 
1640 1550 2056 3 
1641 1530 1262 3 
1642 1530 1529 1 
1643 1530 2056 3 
1644 2023 2293 2 
1645 1773 2297 2 
1646 1283 1521 2 
1647 1521 1522 1 
1648 1772 1282 3 
1649 1772 1771 1 
1650 1774 1772 3 
1651 1774 1773 1 
1652 1282 1774 3 
1653 1282 1281 1 
1654 2271 2272 1 
1655 2271 2763 2 
1656 2522 2532 3 
1657 2522 2772 3 
1658 2530 2532 3 
1659 2530 2529 1 
1660 2772 2530 3 
1661 2772 2771 1 
1662 2532 2772 3 
1663 2532 2531 1 
1664 2521 2522 1 
1665 2521 3515 2 
1666 2301 2302 1 
1667 2301 2797 2 
1668 3277 3278 1 
1669 3289 3290 1 
1670 3316 2524 3 
1671 3316 3315 1 
1672 3316 3790 3 
1673 3534 3316 3 
1674 3534 3533 1 
1675 2524 3534 3 
1676 2524 2523 1 
1677 2524 3790 3 
1678 3287 3521 2 
1679 3577 3578 1 
1680 3293 3294 1 
1681 3285 3286 1 
1682 3285 3293 2 
1683 2795 2796 1 
1684 4024 4023 1 
1685 3032 3536 3 
1686 3032 3031 1 
1687 3032 3274 3 
1688 3795 3796 1 
1689 3263 3535 2 
1690 3274 3242 3 
1691 3274 3273 1 
1692 3274 3536 3 
1693 3273 3809 2 
1694 2781 3289 2 
1695 3270 4024 3 
1696 3536 3242 3 
1697 3536 3535 1 
1698 3315 4035 2 
1699 3537 3795 2 
1700 4036 4035 1 
1701 3746 3745 1 
1702 3746 4036 3 
1703 3014 3544 3 
1704 3014 3013 1 
1705 3014 4028 3 
1706 3014 4046 3 
1707 3544 4046 3 
1708 3544 3543 1 
1709 4028 3544 3 
1710 4028 4027 1 
1711 4046 4028 3 
1712 4046 4045 1 
1713 4272 4278 3 
1714 4272 4271 1 
1715 4039 4040 1 
1716 4039 4277 2 
1717 4809 4810 1 
1718 4282 4264 3 
1719 4282 4281 1 
1720 4282 4534 3 
1721 4517 4809 2 
1722 5036 4282 3 
1723 5036 5035 1 
1724 4534 5036 3 
1725 4534 4533 1 
1726 4264 5036 3 
1727 4264 4263 1 
1728 4264 4534 3 
1729 4278 4266 3 
1730 4278 4277 1 
1731 4270 4272 3 
1732 4270 4269 1 
1733 4270 4278 3 
1734 4266 4272 3 
1735 4266 4265 1 
1736 4266 4270 3 
1737 4281 4787 2 
1738 4287 4288 1 
1739 4005 4287 2 
1740 4518 4772 3 
1741 4518 4517 1 
1742 4019 4020 1 
1743 5024 4518 3 
1744 5024 5023 1 
1745 4790 4789 1 
1746 4316 4790 3 
1747 5298 5297 1 
1748 3805 3806 1 
1749 4288 5298 3 
1750 4014 5536 3 
1751 4014 4013 1 
1752 4014 5332 3 
1753 4014 5294 3 