ITEM: TIMESTEP
22440
ITEM: NUMBER OF ENTRIES
5152
ITEM: BOX BOUNDS pp pp ff
0.0000000000000000e+00 7.2168784000000002e+01
0.0000000000000000e+00 7.2168784000000002e+01
0.0000000000000000e+00 1.2000000000000000e+01
ITEM: ENTRIES index c_1[1] c_1[2] c_1[3]
1 6009 6010 1 
2 6242 6241 1 
3 6010 6242 3 
4 6002 244 3 
5 525 526 1 
6 6017 6018 1 
7 233 269 2 
8 269 270 1 
9 234 233 1 
10 1011 1012 1 
11 1011 1483 2 
12 1765 1766 1 
13 2273 2274 1 
14 2251 2489 2 
15 2489 2490 1 
16 2762 1504 3 
17 2762 2761 1 
18 1504 2252 3 
19 1504 1503 1 
20 2495 2496 1 
21 2535 2536 1 
22 2252 2732 3 
23 2252 2251 1 
24 2252 2762 3 
25 2503 2504 1 
26 2503 2739 2 
27 2732 1504 3 
28 2732 2731 1 
29 2732 2762 3 
30 2992 2778 3 
31 2992 2991 1 
32 2992 3002 3 
33 2778 3006 3 
34 2778 2777 1 
35 3006 2992 3 
36 3006 3005 1 
37 3002 2778 3 
38 3002 3001 1 
39 3002 3006 3 
40 3467 3468 1 
41 3986 3510 3 
42 3986 3985 1 
43 3510 3010 3 
44 3510 3509 1 
45 3493 4021 2 
46 3526 3525 1 
47 3512 3526 3 
48 3757 3758 1 
49 3281 3282 1 
50 3763 3764 1 
51 3761 3762 1 
52 4276 4048 3 
53 4499 4500 1 
54 4521 4522 1 
55 4521 4761 2 
56 4048 4047 1 
57 4741 4742 1 
58 4515 4741 2 
59 4493 4494 1 
60 4493 4735 2 
61 4735 4736 1 
62 5002 5001 1 
63 4755 4756 1 
64 4755 5501 2 
65 5017 5018 1 
66 5017 5239 2 
67 5014 5502 3 
68 5256 5255 1 
69 5742 5256 3 
70 6231 6232 1 
71 6233 6234 1 
72 6008 6007 1 
73 6224 6008 3 
74 247 5753 2 
75 6001 6002 1 
76 6223 6224 1 
77 6022 248 3 
78 6022 6021 1 
79 257 258 1 
80 257 6241 2 
81 248 12 3 
82 248 247 1 
83 12 34 3 
84 12 11 1 
85 12 6022 3 
86 34 248 3 
87 34 33 1 
88 34 6022 3 
89 274 273 1 
90 512 511 1 
91 512 274 3 
92 22 512 3 
93 22 274 3 
94 501 502 1 
95 33 501 2 
96 271 272 1 
97 270 522 3 
98 270 768 3 
99 270 526 3 
100 526 522 3 
101 526 1022 3 
102 768 1022 3 
103 522 521 1 
104 522 768 3 
105 1020 1002 3 
106 1020 1019 1 
107 1002 536 3 
108 1002 1001 1 
109 516 284 3 
110 1018 1040 3 
111 1018 1017 1 
112 1018 1534 3 
113 1274 1018 3 
114 1274 1273 1 
115 284 283 1 
116 1040 1274 3 
117 1040 1039 1 
118 1040 1534 3 
119 1534 1274 3 
120 1534 1533 1 
121 1780 1034 3 
122 1780 1779 1 
123 1767 1768 1 
124 2531 2731 2 
125 2512 2530 3 
126 2512 2522 3 
127 2532 2772 3 
128 2532 2531 1 
129 2530 2532 3 
130 2530 2529 1 
131 2522 2532 3 
132 2522 2772 3 
133 2772 2530 3 
134 2772 2771 1 
135 3015 3016 1 
136 3015 3525 2 
137 3511 3512 1 
138 3539 3540 1 
139 3253 3254 1 
140 5036 4282 3 
141 5036 5035 1 
142 4534 5036 3 
143 4534 4533 1 
144 4282 4264 3 
145 4282 4281 1 
146 4282 4534 3 
147 4264 5036 3 
148 4264 4263 1 
149 4264 4534 3 
150 4746 5002 3 
151 5289 5290 1 
152 4745 4746 1 
153 4745 5021 2 
154 6003 6004 1 
155 273 541 2 
156 11 6051 2 
157 524 6036 3 
158 6051 6052 1 
159 541 542 1 
160 515 516 1 
161 778 777 1 
162 1042 778 3 
163 1047 1048 1 
164 1521 1522 1 
165 1281 1541 2 
166 1515 1516 1 
167 2281 2529 2 
168 3535 3536 1 
169 3263 3535 2 
170 3290 2784 3 
171 3241 3242 1 
172 3790 3534 3 
173 3790 3789 1 
174 3534 3316 3 
175 3534 3533 1 
176 2524 3534 3 
177 2524 2523 1 
178 2524 3790 3 
179 3316 2524 3 
180 3316 3315 1 
181 3316 3790 3 
182 3540 4524 3 
183 4524 4523 1 
184 3797 3798 1 
185 5319 5320 1 
186 6036 6035 1 
187 6045 6046 1 
188 5787 5788 1 
189 5787 6045 2 
190 322 6044 3 
191 322 321 1 
192 6044 538 3 
193 6044 6043 1 
194 280 532 3 
195 523 524 1 
196 554 546 3 
197 554 553 1 
198 546 792 3 
199 546 545 1 
200 539 540 1 
201 295 296 1 
202 295 815 2 
203 815 816 1 
204 1031 1032 1 
205 1283 1521 2 
206 1541 1542 1 
207 1771 1772 1 
208 2539 2540 1 
209 1787 1788 1 
210 2564 2563 1 
211 2044 2564 3 
212 2563 2817 2 
213 2519 2520 1 
214 2043 2044 1 
215 2327 2328 1 
216 2301 2302 1 
217 3041 3042 1 
218 2571 2572 1 
219 3292 3291 1 
220 3310 3292 3 
221 3548 3284 3 
222 3548 3547 1 
223 3309 3310 1 
224 3031 3032 1 
225 3031 3309 2 
226 3048 3548 3 
227 3048 3047 1 
228 3284 3048 3 
229 3284 3283 1 
230 4301 4302 1 
231 5292 5291 1 
232 4302 5292 3 
233 4527 4528 1 
234 5792 5566 3 
235 5792 5791 1 
236 5823 5824 1 
237 5532 5531 1 
238 5320 5532 3 
239 35 6035 2 
240 5779 5780 1 
241 17 18 1 
242 6029 6030 1 
243 538 322 3 
244 538 537 1 
245 545 553 2 
246 1289 1290 1 
247 1792 1791 1 
248 2308 1792 3 
249 1333 1334 1 
250 1302 1301 1 
251 1572 1302 3 
252 2053 2054 1 
253 1781 1782 1 
254 1571 1572 1 
255 1571 1781 2 
256 1795 1796 1 
257 1795 2053 2 
258 1798 1797 1 
259 1824 2292 3 
260 1824 1823 1 
261 2292 1800 3 
262 2292 2291 1 
263 1800 1824 3 
264 1800 1799 1 
265 1562 1798 3 
266 2021 2022 1 
267 2801 2802 1 
268 2817 2818 1 
269 2551 2552 1 
270 2822 2821 1 
271 3280 2822 3 
272 2263 2264 1 
273 3055 3056 1 
274 3776 3775 1 
275 3332 3776 3 
276 5049 5050 1 
277 4551 4552 1 
278 4783 4784 1 
279 4767 4768 1 
280 4767 4783 2 
281 5073 5074 1 
282 4085 4086 1 
283 4303 4304 1 
284 5566 5048 3 
285 5566 5565 1 
286 4803 4804 1 
287 4813 4814 1 
288 4813 5565 2 
289 5048 5792 3 
290 5048 5047 1 
291 4574 5798 3 
292 5798 5797 1 
293 5814 5302 3 
294 5813 5814 1 
295 5551 5552 1 
296 294 52 3 
297 294 293 1 
298 294 5548 3 
299 52 6064 3 
300 52 51 1 
301 52 5548 3 
302 5548 6064 3 
303 5548 5547 1 
304 6064 294 3 
305 6064 6063 1 
306 6061 6062 1 
307 798 797 1 
308 314 798 3 
309 589 590 1 
310 795 796 1 
311 41 42 1 
312 69 70 1 
313 69 589 2 
314 71 72 1 
315 2307 2308 1 
316 2291 2353 2 
317 2353 2354 1 
318 1561 1562 1 
319 3279 3280 1 
320 2821 3317 2 
321 3317 3318 1 
322 2065 2066 1 
323 3051 3052 1 
324 3297 3298 1 
325 3589 3590 1 
326 3306 3558 3 
327 3306 3305 1 
328 3306 3574 3 
329 3558 4066 3 
330 3558 3557 1 
331 3558 3574 3 
332 4066 3306 3 
333 4066 4065 1 
334 3574 4066 3 
335 3574 3573 1 
336 4325 4326 1 
337 4059 4060 1 
338 4059 4065 2 
339 4310 4309 1 
340 4309 4543 2 
341 4073 4074 1 
342 5071 5072 1 
343 4804 5296 3 
344 5296 5295 1 
345 5333 5334 1 
346 5801 5802 1 
347 5816 5815 1 
348 6083 6084 1 
349 5315 5316 1 
350 5825 5826 1 
351 5825 6063 2 
352 5819 5820 1 
353 5819 6083 2 
354 6062 64 3 
355 292 291 1 
356 5822 5838 3 
357 77 78 1 
358 819 820 1 
359 336 822 3 
360 335 336 1 
361 825 826 1 
362 822 821 1 
363 855 856 1 
364 1564 1310 3 
365 1564 1563 1 
366 1310 1070 3 
367 1310 1309 1 
368 1070 1564 3 
369 1070 1069 1 
370 828 1832 3 
371 828 827 1 
372 1074 828 3 
373 1074 1073 1 
374 1832 1074 3 
375 1832 1831 1 
376 1073 1339 2 
377 2077 2078 1 
378 1339 1340 1 
379 847 848 1 
380 847 2077 2 
381 2581 2582 1 
382 2824 3038 3 
383 3038 3037 1 
384 2823 2824 1 
385 2835 2836 1 
386 2559 2560 1 
387 2559 2835 2 
388 3561 3562 1 
389 3061 3062 1 
390 3825 3826 1 
391 3825 3853 2 
392 3793 3794 1 
393 4587 4588 1 
394 3572 4072 3 
395 3572 3571 1 
396 4322 3572 3 
397 4322 4321 1 
398 4072 4322 3 
399 4072 4071 1 
400 4074 3802 3 
401 3802 3801 1 
402 4535 4536 1 
403 3591 3592 1 
404 4321 4351 2 
405 4825 4826 1 
406 5051 5052 1 
407 5051 5573 2 
408 5325 5326 1 
409 5573 5574 1 
410 5081 5082 1 
411 5561 5562 1 
412 5327 5328 1 
413 91 5327 2 
414 5563 5564 1 
415 5563 5811 2 
416 6079 6080 1 
417 6071 6072 1 
418 832 586 3 
419 831 832 1 
420 586 585 1 
421 811 812 1 
422 1341 1342 1 
423 1341 1831 2 
424 829 830 1 
425 1351 1352 1 
426 1077 1078 1 
427 1077 1367 2 
428 1367 1368 1 
429 2831 2832 1 
430 2585 2586 1 
431 2349 2585 2 
432 3607 3608 1 
433 3607 3813 2 
434 3813 3814 1 
435 3359 3360 1 
436 3864 3092 3 
437 5085 5086 1 
438 4577 4578 1 
439 4335 4336 1 
440 5065 5066 1 
441 4836 4835 1 
442 5098 4836 3 
443 3845 3846 1 
444 5077 5078 1 
445 6103 6104 1 
446 5359 5360 1 
447 6095 6096 1 
448 344 592 3 
449 344 343 1 
450 343 831 2 
451 592 350 3 
452 592 591 1 
453 843 844 1 
454 581 582 1 
455 1091 1103 2 
456 1103 1104 1 
457 1113 1114 1 
458 1347 1348 1 
459 596 1092 3 
460 1092 1091 1 
461 1847 1848 1 
462 1847 2615 2 
463 3339 3340 1 
464 3341 3342 1 
465 2335 2336 1 
466 3619 3620 1 
467 3087 3088 1 
468 4108 4107 1 
469 4337 4338 1 
470 2583 2584 1 
471 3123 3124 1 
472 3593 3863 2 
473 3088 2842 3 
474 3863 3864 1 
475 4100 4332 3 
476 4100 4099 1 
477 4856 4100 3 
478 4856 4855 1 
479 5079 5345 2 
480 5079 5080 1 
481 4339 4340 1 
482 4600 4596 3 
483 5102 5094 3 
484 5611 5612 1 
485 6102 6101 1 
486 5856 6102 3 
487 5841 5842 1 
488 102 342 3 
489 102 101 1 
490 342 6086 3 
491 342 341 1 
492 6086 102 3 
493 6086 6085 1 
494 591 875 2 
495 1614 1613 1 
496 1401 1402 1 
497 621 622 1 
498 1853 1854 1 
499 1835 2115 2 
500 1872 1346 3 
501 1872 1871 1 
502 1858 2616 3 
503 2363 2364 1 
504 2616 2615 1 
505 1861 1862 1 
506 2864 2894 3 
507 2864 2863 1 
508 2894 2342 3 
509 2894 2893 1 
510 2342 2864 3 
511 2342 2341 1 
512 2357 2358 1 
513 3337 3338 1 
514 3111 3112 1 
515 3884 3883 1 
516 3366 3594 3 
517 3124 3884 3 
518 3105 3106 1 
519 3594 3593 1 
520 4365 4366 1 
521 3365 3366 1 
522 3371 3372 1 
523 3861 3862 1 
524 4083 4084 1 
525 4569 4570 1 
526 3851 3852 1 
527 5354 5353 1 
528 4592 5354 3 
529 4599 4600 1 
530 4599 4875 2 
531 4593 4594 1 
532 4874 4586 3 
533 4874 4873 1 
534 4874 5134 3 
535 4371 4372 1 
536 5347 5348 1 
537 5601 5602 1 
538 5601 5861 2 
539 371 372 1 
540 325 326 1 
541 325 6101 2 
542 110 5882 3 
543 5881 6109 2 
544 6109 6110 1 
545 361 362 1 
546 121 122 1 
547 5616 5615 1 
548 139 140 1 
549 615 616 1 
550 864 863 1 
551 653 654 1 
552 653 1147 2 
553 616 864 3 
554 1147 1148 1 
555 1356 1106 3 
556 1106 1105 1 
557 634 1614 3 
558 1133 1134 1 
559 633 634 1 
560 1134 1136 3 
561 1359 1360 1 
562 1136 1135 1 
563 1393 1394 1 
564 1875 1876 1 
565 2362 1642 3 
566 2115 2116 1 
567 1642 1641 1 
568 2131 2132 1 
569 2619 2620 1 
570 2619 2853 2 
571 2853 2854 1 
572 2873 2874 1 
573 2873 3643 2 
574 3375 3883 2 
575 3625 3626 1 
576 3624 3623 1 
577 4369 4370 1 
578 4370 4104 3 
579 4873 5353 2 
580 4846 4874 3 
581 4846 4845 1 
582 4586 4846 3 
583 4586 4585 1 
584 4586 5134 3 
585 5134 4846 3 
586 5134 5133 1 
587 4629 4630 1 
588 4629 5635 2 
589 5635 5636 1 
590 5916 5624 3 
591 5624 5623 1 
592 153 154 1 
593 6110 114 3 
594 114 113 1 
595 877 878 1 
596 142 141 1 
597 1380 142 3 
598 1143 1144 1 
599 1373 1374 1 
600 1873 1874 1 
601 1385 1386 1 
602 1385 1881 2 
603 2113 2114 1 
604 2361 2362 1 
605 2621 2622 1 
606 2625 2626 1 
607 3179 3180 1 
608 3898 2866 3 
609 2866 2865 1 
610 3897 3898 1 
611 3143 3641 2 
612 2865 3901 2 
613 4103 4115 2 
614 4115 4116 1 
615 3613 4633 2 
616 3614 3613 1 
617 4116 3614 3 
618 4397 4398 1 
619 5361 5362 1 
620 5877 5878 1 
621 5665 5666 1 
622 5625 5626 1 
623 5871 5872 1 
624 5597 5598 1 
625 6121 6122 1 
626 141 143 2 
627 613 614 1 
628 641 642 1 
629 132 902 3 
630 132 131 1 
631 1381 1382 1 
632 1644 1643 1 
633 1882 2174 3 
634 1882 1881 1 
635 1882 2374 3 
636 1882 2152 3 
637 2152 2374 3 
638 2152 2151 1 
639 2374 2174 3 
640 2374 2373 1 
641 2174 2152 3 
642 2174 2173 1 
643 886 1668 3 
644 1668 1667 1 
645 1883 1884 1 
646 2648 2662 3 
647 2662 2661 1 
648 2647 2648 1 
649 3667 3668 1 
650 3865 3866 1 
651 2877 2878 1 
652 2877 3897 2 
653 4396 4634 3 
654 4634 4633 1 
655 4412 4411 1 
656 3390 4412 3 
657 3923 3924 1 
658 3902 3618 3 
659 3902 3901 1 
660 3378 4134 3 
661 4134 4133 1 
662 4643 4644 1 
663 4155 4156 1 
664 4155 4643 2 
665 5383 5384 1 
666 5631 5632 1 
667 5926 5642 3 
668 6151 6152 1 
669 902 384 3 
670 902 901 1 
671 384 132 3 
672 384 383 1 
673 415 421 2 
674 1653 1654 1 
675 1415 1416 1 
676 1163 1164 1 
677 2130 1644 3 
678 1377 1378 1 
679 1907 1908 1 
680 1907 2373 2 
681 3649 3650 1 
682 2871 2872 1 
683 2871 2907 2 
684 2656 2655 1 
685 2934 2656 3 
686 3899 3900 1 
687 3663 3664 1 
688 3663 3899 2 
689 3159 3907 2 
690 3621 3622 1 
691 3621 4421 2 
692 4421 4422 1 
693 3915 3916 1 
694 3916 3678 3 
695 3678 3677 1 
696 4923 4924 1 
697 4922 4196 3 
698 4877 4878 1 
699 4877 4931 2 
700 4909 4910 1 
701 4196 4195 1 
702 4663 4664 1 
703 5167 5168 1 
704 5642 5641 1 
705 5883 5884 1 
706 6153 6154 1 
707 5411 6153 2 
708 1161 1162 1 
709 422 421 1 
710 656 422 3 
711 931 932 1 
712 185 186 1 
713 175 176 1 
714 1165 1166 1 
715 1673 1674 1 
716 2414 2184 3 
717 2414 2413 1 
718 2184 1672 3 
719 2184 2183 1 
720 1672 2414 3 
721 1672 1671 1 
722 2915 2916 1 
723 2665 2666 1 
724 2665 2915 2 
725 2907 2908 1 
726 2902 2684 3 
727 2684 2683 1 
728 3172 3674 3 
729 2655 3151 2 
730 3674 3673 1 
731 3679 3680 1 
732 2663 2664 1 
733 2663 2683 2 
734 3631 3632 1 
735 3631 3679 2 
736 3173 3174 1 
737 3163 3173 2 
738 3907 3908 1 
739 4173 4174 1 
740 3914 3404 3 
741 3914 3913 1 
742 3404 3670 3 
743 3404 3403 1 
744 4168 4674 3 
745 4168 4167 1 
746 4428 4168 3 
747 4428 4427 1 
748 4674 4428 3 
749 4674 4673 1 
750 4399 4400 1 
751 4625 4626 1 
752 4911 4912 1 
753 4921 4922 1 
754 4921 4947 2 
755 4415 4416 1 
756 4415 5163 2 
757 5141 5142 1 
758 5447 5448 1 
759 5164 5163 1 
760 5185 5447 2 
761 4680 5164 3 
762 4919 5423 2 
763 5412 378 3 
764 5412 5411 1 
765 5412 6156 3 
766 6156 112 3 
767 6156 6155 1 
768 112 378 3 
769 112 111 1 
770 112 5412 3 
771 378 6156 3 
772 378 377 1 
773 181 182 1 
774 401 402 1 
775 655 656 1 
776 426 425 1 
777 932 426 3 
778 955 956 1 
779 921 922 1 
780 671 921 2 
781 1197 1198 1 
782 1681 1682 1 
783 1155 1156 1 
784 1155 1913 2 
785 1913 1914 1 
786 1192 1191 1 
787 1922 1894 3 
788 1894 1893 1 
789 2687 2688 1 
790 1699 1700 1 
791 2901 2902 1 
792 3177 3178 1 
793 3201 3202 1 
794 3171 3172 1 
795 3475 3476 1 
796 4153 4154 1 
797 3913 4427 2 
798 4700 4699 1 
799 4912 4700 3 
800 5174 5446 3 
801 5174 5173 1 
802 5446 5186 3 
803 5446 5445 1 
804 5186 5174 3 
805 5186 5185 1 
806 5444 5956 3 
807 5129 5130 1 
808 5956 5955 1 
809 5672 5670 3 
810 5670 5669 1 
811 5443 5444 1 
812 5443 5691 2 
813 5691 5692 1 
814 429 430 1 
815 943 944 1 
816 6203 6204 1 
817 445 943 2 
818 205 429 2 
819 695 696 1 
820 195 196 1 
821 209 210 1 
822 209 729 2 
823 952 460 3 
824 952 951 1 
825 702 952 3 
826 702 701 1 
827 936 682 3 
828 936 935 1 
829 710 936 3 
830 710 709 1 
831 672 936 3 
832 672 671 1 
833 672 710 3 
834 699 700 1 
835 699 1215 2 
836 1215 1216 1 
837 1181 1191 2 
838 1703 1704 1 
839 1454 1453 1 
840 1412 1192 3 
841 1666 1454 3 
842 1933 1934 1 
843 1411 1412 1 
844 2185 2186 1 
845 2185 2193 2 
846 2437 2438 1 
847 2431 2432 1 
848 2431 2437 2 
849 2193 2194 1 
850 3401 3402 1 
851 3421 3422 1 
852 3421 3711 2 
853 3414 3204 3 
854 3414 3413 1 
855 3204 3438 3 
856 3204 3203 1 
857 3438 3414 3 
858 3438 3437 1 
859 3422 3702 3 
860 3702 3701 1 
861 3683 3684 1 
862 4961 4962 1 
863 4423 4424 1 
864 4423 4961 2 
865 5675 5676 1 
866 5671 5672 1 
867 6217 6218 1 
868 423 424 1 
869 423 5933 2 
870 706 5968 3 
871 194 193 1 
872 196 194 3 
873 451 452 1 
874 705 6191 2 
875 705 706 1 
876 729 730 1 
877 221 222 1 
878 6163 6164 1 
879 692 702 3 
880 692 691 1 
881 692 952 3 
882 460 702 3 
883 460 459 1 
884 460 692 3 
885 452 214 3 
886 216 472 3 
887 214 213 1 
888 472 471 1 
889 471 661 2 
890 1185 1186 1 
891 1444 1443 1 
892 700 1444 3 
893 1964 1720 3 
894 1964 1963 1 
895 2441 2442 1 
896 3221 3222 1 
897 2704 2946 3 
898 2946 2945 1 
899 3187 3188 1 
900 3187 3427 2 
901 3701 3975 2 
902 3975 3976 1 
903 4672 4671 1 
904 4220 4672 3 
905 4435 4436 1 
906 4219 4693 2 
907 4219 4220 1 
908 4693 4694 1 
909 5189 5190 1 
910 4471 4963 2 
911 4215 4216 1 
912 4215 4437 2 
913 4684 4162 3 
914 4683 4684 1 
915 4683 4945 2 
916 4963 4964 1 
917 4162 4161 1 
918 4945 4946 1 
919 5191 5192 1 
920 5421 5422 1 
921 5421 5677 2 
922 5677 5678 1 
923 5932 5966 3 
924 5932 5931 1 
925 5932 5934 3 
926 5966 204 3 
927 5966 5965 1 
928 204 5932 3 
929 204 203 1 
930 204 5934 3 
931 5934 5966 3 
932 5934 5933 1 
933 6221 6222 1 
934 5968 5967 1 
935 6195 6196 1 
936 191 192 1 
937 191 483 2 
938 183 691 2 
939 184 183 1 
940 1230 184 3 
941 1951 1952 1 
942 1452 998 3 
943 1943 1944 1 
944 2461 2462 1 
945 2211 2461 2 
946 2208 2207 1 
947 2196 2208 3 
948 2455 2456 1 
949 1967 2455 2 
950 1999 2000 1 
951 1999 2973 2 
952 2973 2974 1 
953 2713 2714 1 
954 2701 2702 1 
955 2701 3443 2 
956 3456 3455 1 
957 3222 3456 3 
958 3443 3444 1 
959 2719 3231 2 
960 3983 3984 1 
961 3979 3983 2 
962 3919 3920 1 
963 4975 4976 1 
964 4437 4438 1 
965 4225 4226 1 
966 4472 4471 1 
967 4455 4456 1 
968 4479 4713 2 
969 5201 5202 1 
970 5207 5208 1 
971 203 5207 2 
972 464 463 1 
973 480 464 3 
974 461 462 1 
975 1221 1222 1 
976 1211 1212 1 
977 1211 1221 2 
978 2729 2730 1 
979 1498 1994 3 
980 1994 2240 3 
981 1718 2240 3 
982 2240 2239 1 
983 1993 1994 1 
984 1481 2239 2 
985 2456 2212 3 
986 1978 1956 3 
987 1978 1977 1 
988 1482 1978 3 
989 1482 1481 1 
990 1956 1482 3 
991 1956 1955 1 
992 2212 2211 1 
993 2743 2744 1 
994 3214 2986 3 
995 3214 3213 1 
996 2720 2719 1 
997 3192 3232 3 
998 3192 3191 1 
999 3964 3192 3 
1000 3964 3963 1 
1001 3232 3964 3 
1002 3232 3231 1 
1003 4987 4988 1 
1004 4260 4970 3 
1005 4260 4259 1 
1006 4970 4480 3 
1007 4970 4969 1 
1008 4480 4260 3 
1009 4480 4479 1 
1010 5723 5724 1 
1011 5724 5714 3 
1012 5714 5713 1 
1013 6005 6006 1 
1014 5713 6005 2 
1015 231 232 1 
1016 484 483 1 
1017 496 484 3 
1018 1488 1487 1 
1019 1476 1488 3 
1020 1247 1475 2 
1021 1249 1250 1 
1022 1249 1489 2 
1023 2483 2484 1 
1024 2972 2242 3 
1025 2972 2971 1 
1026 2224 2972 3 
1027 2224 2223 1 
1028 2242 2224 3 
1029 2242 2241 1 
1030 2986 2994 3 
1031 2986 2985 1 
1032 2994 3214 3 
1033 2994 2993 1 
1034 2994 3210 3 
1035 3210 2986 3 
1036 3210 3209 1 
1037 3210 3214 3 
1038 2975 2976 1 
1039 3741 3742 1 
1040 3483 3484 1 
1041 3483 3741 2 
1042 2734 2720 3 
1043 3225 3226 1 
1044 3225 3963 2 
1045 3519 3520 1 
1046 2453 2454 1 
1047 2453 3519 2 
1048 4491 4492 1 
1049 3243 3244 1 
1050 3243 4491 2 
1051 3465 3466 1 
1052 4725 4726 1 
1053 3751 3752 1 
1054 4502 5216 3 
1055 5216 5215 1 
1056 4977 4978 1 
1057 4259 4721 2 
1058 4223 4224 1 
1059 5507 5508 1 
1060 5755 5756 1 
1061 5492 5266 3 
1062 5492 5491 1 
1063 5266 5490 3 
1064 5266 5265 1 
1065 5973 5974 1 
1066 475 476 1 
1067 487 488 1 
1068 1005 1006 1 
1069 263 264 1 
1070 505 506 1 
1071 1239 1240 1 
1072 5 6 1 
1073 5 733 2 
1074 485 1239 2 
1075 486 485 1 
1076 1242 486 3 
1077 1475 1476 1 
1078 1013 1014 1 
1079 1241 1242 1 
1080 1762 1761 1 
1081 1483 1484 1 
1082 1484 1762 3 
1083 1501 1502 1 
1084 1485 1486 1 
1085 2245 2246 1 
1086 2255 2256 1 
1087 1233 1234 1 
1088 2981 2982 1 
1089 2513 2514 1 
1090 2247 2248 1 
1091 3494 3493 1 
1092 3758 3494 3 
1093 3491 3492 1 
1094 4247 4248 1 
1095 4757 4758 1 
1096 4221 4222 1 
1097 6245 6246 1 
1098 5490 5492 3 
1099 5490 5489 1 
1100 5259 5260 1 
1101 5259 5737 2 
1102 5737 5738 1 
1103 5019 5265 2 
1104 5734 5748 3 
1105 5734 5733 1 
1106 5472 5734 3 
1107 5472 5471 1 
1108 5748 5472 3 
1109 5748 5747 1 
1110 5741 5742 1 
1111 244 243 1 
1112 243 475 2 
1113 253 254 1 
1114 225 226 1 
1115 29 251 2 
1116 251 252 1 
1117 6025 6026 1 
1118 5517 5518 1 
1119 45 46 1 
1120 763 764 1 
1121 25 26 1 
1122 757 758 1 
1123 1263 1264 1 
1124 1786 1280 3 
1125 1786 1785 1 
1126 1280 1008 3 
1127 1280 1279 1 
1128 1008 1786 3 
1129 1008 1007 1 
1130 1507 1508 1 
1131 2225 2226 1 
1132 1265 1266 1 
1133 1265 2273 2 
1134 1763 1764 1 
1135 2226 1272 3 
1136 2253 2254 1 
1137 1517 1518 1 
1138 1751 1752 1 
1139 1751 2769 2 
1140 2785 2786 1 
1141 3255 3256 1 
1142 2276 2018 3 
1143 2276 2275 1 
1144 2754 2276 3 
1145 2754 2753 1 
1146 2508 2276 3 
1147 2508 2507 1 
1148 2508 2754 3 
1149 2018 2508 3 
1150 2018 2017 1 
1151 2018 2754 3 
1152 2961 2962 1 
1153 2525 2526 1 
1154 2525 2785 2 
1155 2279 2509 2 
1156 2740 2739 1 
1157 2254 2280 3 
1158 2504 2740 3 
1159 2509 2510 1 
1160 2745 2746 1 
1161 2481 2482 1 
1162 2497 2498 1 
1163 3257 3258 1 
1164 3010 3986 3 
1165 3010 3009 1 
1166 3245 3246 1 
1167 3304 3550 3 
1168 3550 3549 1 
1169 3504 4022 3 
1170 3303 3304 1 
1171 4022 4021 1 
1172 4257 4258 1 
1173 3759 3767 2 
1174 3770 3769 1 
1175 4012 3770 3 
1176 4007 4008 1 
1177 3527 3528 1 
1178 3527 3777 2 
1179 4503 4504 1 
1180 3769 4503 2 
1181 3766 3744 3 
1182 3766 3765 1 
1183 3766 4290 3 
1184 4744 3766 3 
1185 4744 4743 1 
1186 4290 4744 3 
1187 4290 4289 1 
1188 3744 4744 3 
1189 3744 3743 1 
1190 3744 4290 3 
1191 4761 4762 1 
1192 5525 5526 1 
1193 4275 4276 1 
1194 5790 5504 3 
1195 5790 5789 1 
1196 4516 4780 3 
1197 4516 4515 1 
1198 4727 4728 1 
1199 4752 5790 3 
1200 4752 4751 1 
1201 5504 4752 3 
1202 5504 5503 1 
1203 5025 5026 1 
1204 4522 4280 3 
1205 4780 4262 3 
1206 4780 4779 1 
1207 4753 4754 1 
1208 4753 5533 2 
1209 5001 5263 2 
1210 5239 5240 1 
1211 5005 5006 1 
1212 5005 5279 2 
1213 5276 5758 3 
1214 5276 5275 1 
1215 5502 5501 1 
1216 5020 5276 3 
1217 5020 5019 1 
1218 5758 5020 3 
1219 5758 5757 1 
1220 5281 5282 1 
1221 5281 5521 2 
1222 5521 5522 1 
1223 5520 5519 1 
1224 5983 5984 1 
1225 5255 5747 2 
1226 5981 6007 2 
1227 27 28 1 
1228 5518 5754 3 
1229 5754 5753 1 
1230 507 508 1 
1231 5765 5766 1 
1232 5765 6013 2 
1233 529 530 1 
1234 6013 6014 1 
1235 30 6016 3 
1236 30 29 1 
1237 520 30 3 
1238 520 519 1 
1239 6016 520 3 
1240 6016 6015 1 
1241 9 10 1 
1242 514 513 1 
1243 788 514 3 
1244 6041 6042 1 
1245 1067 1068 1 
1246 787 788 1 
1247 787 1029 2 
1248 536 1020 3 
1249 536 535 1 
1250 1030 1029 1 
1251 782 1030 3 
1252 535 1021 2 
1253 760 1054 3 
1254 760 759 1 
1255 1034 2020 3 
1256 1034 1033 1 
1257 2020 1780 3 
1258 2020 2019 1 
1259 1028 1776 3 
1260 1041 1042 1 
1261 1757 1758 1 
1262 1747 1748 1 
1263 1747 1757 2 
1264 1769 1770 1 
1265 1537 1538 1 
1266 1266 2014 3 
1267 2289 2290 1 
1268 2014 2013 1 
1269 2266 2294 3 
1270 2266 2265 1 
1271 2770 2266 3 
1272 2770 2769 1 
1273 2294 2770 3 
1274 2294 2293 1 
1275 1519 2275 2 
1276 1520 1519 1 
1277 2763 2764 1 
1278 2271 2272 1 
1279 2271 2763 2 
1280 2760 2759 1 
1281 3018 2760 3 
1282 1995 1996 1 
1283 3017 3018 1 
1284 2262 3262 3 
1285 2262 2261 1 
1286 2262 2518 3 
1287 2511 2512 1 
1288 2511 2767 2 
1289 3262 3788 3 
1290 3262 3261 1 
1291 3788 2262 3 
1292 3788 3787 1 
1293 3495 3496 1 
1294 2518 3262 3 
1295 2518 2517 1 
1296 2518 3788 3 
1297 3496 3022 3 
1298 3549 3779 2 
1299 3779 3780 1 
1300 3503 3504 1 
1301 3778 3777 1 
1302 4017 4018 1 
1303 4017 4285 2 
1304 4285 4286 1 
1305 3764 3778 3 
1306 4513 4514 1 
1307 4011 4012 1 
1308 4266 4272 3 
1309 4266 4265 1 
1310 4266 4270 3 
1311 4278 4266 3 
1312 4278 4277 1 
1313 4793 4794 1 
1314 4270 4272 3 
1315 4270 4269 1 
1316 4270 4278 3 
1317 4272 4278 3 
1318 4272 4271 1 
1319 4281 4787 2 
1320 4289 4497 2 
1321 4031 4032 1 
1322 4019 4020 1 
1323 4497 4498 1 
1324 4786 5046 3 
1325 4262 4516 3 
1326 4262 4261 1 
1327 4261 4267 2 
1328 5533 5534 1 
1329 5011 5012 1 
1330 4775 4776 1 
1331 4775 5011 2 
1332 5013 5014 1 
1333 5021 5022 1 
1334 5534 5264 3 
1335 5264 5263 1 
1336 5022 4774 3 
1337 4774 4773 1 
1338 5496 5520 3 
1339 5261 5262 1 
1340 5261 5987 2 
1341 5015 5016 1 
1342 5015 5519 2 
1343 5763 5764 1 
1344 6011 6012 1 
1345 5539 5540 1 
1346 5003 5515 2 
1347 5515 5516 1 
1348 5767 5768 1 
1349 6031 6032 1 
1350 489 490 1 
1351 21 22 1 
1352 21 511 2 
1353 5771 5772 1 
1354 23 24 1 
1355 261 531 2 
1356 37 38 1 
1357 37 6039 2 
1358 6024 5774 3 
1359 6024 6023 1 
1360 6039 6040 1 
1361 775 776 1 
1362 19 20 1 
1363 547 1025 2 
1364 1025 1026 1 
1365 767 768 1 
1366 767 1043 2 
1367 1043 1044 1 
1368 1021 1022 1 
1369 1054 1308 3 
1370 1054 1053 1 
1371 1308 760 3 
1372 1308 1307 1 
1373 1776 1775 1 
1374 1038 1037 1 
1375 1032 1038 3 
1376 771 772 1 
1377 771 1533 2 
1378 1536 1268 3 
1379 1536 1535 1 
1380 1760 1536 3 
1381 1760 1759 1 
1382 1278 1268 3 
1383 1278 1277 1 
1384 1278 1760 3 
1385 1278 1536 3 
1386 1268 1760 3 
1387 1268 1267 1 
1388 1777 1778 1 
1389 1509 1510 1 
1390 2024 2023 1 
1391 1772 1282 3 
1392 1282 1281 1 
1393 2049 2050 1 
1394 2297 2298 1 
1395 2283 2284 1 
1396 2540 2286 3 
1397 2314 1520 3 
1398 2286 2285 1 
1399 2313 2775 2 
1400 2313 2314 1 
1401 2775 2776 1 
1402 2318 2040 3 
1403 2318 2317 1 
1404 2759 3251 2 
1405 3546 3026 3 
1406 3546 3545 1 
1407 3020 2798 3 
1408 3020 3019 1 
1409 3020 3546 3 
1410 3020 3026 3 
1411 3026 2798 3 
1412 3026 3025 1 
1413 2798 3546 3 
1414 2798 2797 1 
1415 2784 2783 1 
1416 3022 3021 1 
1417 2521 2522 1 
1418 3272 3034 3 
1419 3272 3271 1 
1420 3272 3538 3 
1421 3264 3538 3 
1422 3264 3263 1 
1423 3264 3272 3 
1424 3538 3034 3 
1425 3538 3537 1 
1426 3034 3264 3 
1427 3034 3033 1 
1428 3261 3545 2 
1429 3515 3516 1 
1430 4024 4023 1 
1431 3269 3270 1 
1432 3270 4024 3 
1433 3013 3014 1 
1434 4518 4517 1 
1435 5023 5024 1 
1436 4771 4772 1 
1437 4763 5023 2 
1438 4037 4038 1 
1439 4764 4532 3 
1440 4764 4763 1 
1441 4550 4764 3 
1442 4550 4549 1 
1443 4550 4556 3 
1444 4295 4296 1 
1445 4553 4554 1 
1446 4531 4553 2 
1447 4532 4550 3 
1448 4532 4531 1 
1449 4532 4556 3 
1450 4267 4268 1 
1451 4791 4792 1 
1452 5283 5284 1 
1453 4294 4293 1 
1454 4296 4294 3 
1455 4759 4760 1 
1456 4519 4520 1 
1457 4519 5031 2 
1458 5761 5762 1 
1459 5523 5524 1 
1460 5762 5004 3 
1461 5004 5003 1 
1462 6047 6048 1 
1463 5774 5800 3 
1464 5774 5773 1 
1465 5800 6024 3 
1466 5800 5799 1 
1467 31 32 1 
1468 31 773 2 
1469 773 774 1 
1470 32 262 3 
1471 279 280 1 
1472 792 554 3 
1473 792 791 1 
1474 785 786 1 
1475 532 531 1 
1476 255 256 1 
1477 1016 550 3 
1478 550 549 1 
1479 517 518 1 
1480 47 48 1 
1481 47 517 2 
1482 793 794 1 
1483 557 789 2 
1484 289 1759 2 
1485 789 790 1 
1486 2062 1528 3 
1487 2062 2061 1 
1488 1284 2062 3 
1489 1284 1283 1 
1490 1528 1284 3 
1491 1528 1527 1 
1492 534 533 1 
1493 1512 534 3 
1494 1801 1802 1 
1495 319 320 1 
1496 1511 1512 1 
1497 1743 1744 1 
1498 2025 2026 1 
1499 2025 2807 2 
1500 2807 2808 1 
1501 1827 1828 1 
1502 2765 2766 1 
1503 2282 1784 3 
1504 2282 2281 1 
1505 1784 3252 3 
1506 1784 1783 1 
1507 3252 2282 3 
1508 3252 3251 1 
1509 3293 3294 1 
1510 3285 3286 1 
1511 3285 3293 2 
1512 3289 3290 1 
1513 2781 2782 1 
1514 2781 3289 2 
1515 4026 3746 3 
1516 3294 3796 3 
1517 3294 4062 3 
1518 3746 3745 1 
1519 3796 4062 3 
1520 4062 4061 1 
1521 3560 4062 3 
1522 3045 3046 1 
1523 3311 3312 1 
1524 3311 3547 2 
1525 4033 4045 2 
1526 3783 3784 1 
1527 3320 3319 1 
1528 4040 3320 3 
1529 3811 3812 1 
1530 3804 3803 1 
1531 4052 3804 3 
1532 4035 4036 1 
1533 3567 3568 1 
1534 3785 3786 1 
1535 4034 4033 1 
1536 4556 4764 3 
1537 4556 4555 1 
1538 4029 4030 1 
1539 3805 3806 1 
1540 5311 5312 1 
1541 5277 5278 1 
1542 5277 5283 2 
1543 5582 5040 3 
1544 5582 5581 1 
1545 5029 5030 1 
1546 5040 5314 3 
1547 5040 5039 1 
1548 4558 5032 3 
1549 4558 4557 1 
1550 4558 5054 3 
1551 4558 5254 3 
1552 5032 5054 3 
1553 5032 5031 1 
1554 5254 5032 3 
1555 5254 5253 1 
1556 5054 5254 3 
1557 5054 5053 1 
1558 5033 5034 1 
1559 5313 5545 2 
1560 5314 5582 3 
1561 5314 5313 1 
1562 5549 5550 1 
1563 5776 5775 1 
1564 5570 5569 1 
1565 5299 5300 1 
1566 5310 5570 3 
1567 5531 5781 2 
1568 5781 5782 1 
1569 5777 5778 1 
1570 5782 36 3 
1571 36 35 1 
1572 5803 5804 1 
1573 79 80 1 
1574 55 67 2 
1575 67 68 1 
1576 6055 6056 1 
1577 6089 6090 1 
1578 65 807 2 
1579 796 800 3 
1580 808 807 1 
1581 312 808 3 
1582 302 288 3 
1583 302 301 1 
1584 288 556 3 
1585 288 287 1 
1586 556 302 3 
1587 556 555 1 
1588 805 806 1 
1589 805 1553 2 
1590 1539 1540 1 
1591 1555 2055 2 
1592 1296 780 3 
1593 1296 1295 1 
1594 1296 1804 3 
1595 780 1804 3 
1596 780 779 1 
1597 2055 2056 1 
1598 1547 2303 2 
1599 1286 780 3 
1600 1286 1285 1 
1601 1286 1296 3 
1602 1804 1286 3 
1603 1804 1803 1 
1604 2303 2304 1 
1605 1815 1816 1 
1606 1815 1829 2 
1607 1291 1292 1 
1608 1753 2027 2 
1609 2027 2028 1 
1610 2033 2034 1 
1611 2079 2080 1 
1612 1297 1298 1 
1613 1799 2069 2 
1614 2331 2332 1 
1615 2573 2574 1 
1616 2306 1790 3 
1617 1790 1789 1 
1618 3299 3300 1 
1619 3330 3329 1 
1620 3065 3066 1 
1621 3065 3325 2 
1622 3036 3035 1 
1623 3296 3036 3 
1624 3295 3296 1 
1625 3541 3791 2 
1626 3791 3792 1 
1627 3795 3796 1 
1628 2787 2788 1 
1629 4307 4308 1 
1630 3807 3808 1 
1631 3331 3332 1 
1632 4051 4052 1 
1633 4815 4816 1 
1634 3781 3782 1 
1635 4317 4318 1 
1636 4058 4057 1 
1637 3568 4058 3 
1638 3555 3781 2 
1639 4069 4070 1 
1640 4291 4292 1 
1641 4063 4064 1 
1642 4287 4288 1 
1643 4817 4818 1 
1644 4806 4054 3 
1645 4054 4053 1 
1646 4053 4305 2 
1647 4548 4547 1 
1648 5312 4548 3 
1649 4805 4806 1 
1650 4305 4306 1 
1651 4567 4568 1 
1652 4567 5331 2 
1653 5536 5332 3 
1654 5536 5535 1 
1655 5332 5294 3 
1656 5332 5331 1 
1657 5579 5580 1 
1658 5294 5536 3 
1659 5294 5293 1 
1660 5317 5318 1 
1661 5309 5310 1 
1662 5043 5044 1 
1663 5043 5317 2 
1664 5271 5272 1 
1665 5543 5544 1 
1666 5063 5791 2 
1667 5063 5064 1 
1668 5272 5558 3 
1669 6049 6050 1 
1670 4573 4574 1 
1671 5558 5557 1 
1672 5302 5301 1 
1673 5806 5805 1 
1674 63 5557 2 
1675 6054 5806 3 
1676 5542 5541 1 
1677 6069 6070 1 
1678 5804 292 3 
1679 5809 6069 2 
1680 57 58 1 
1681 57 6075 2 
1682 6093 6094 1 
1683 330 6056 3 
1684 353 354 1 
1685 353 5541 2 
1686 317 318 1 
1687 6094 84 3 
1688 60 560 3 
1689 60 59 1 
1690 60 6056 3 
1691 300 562 3 
1692 300 299 1 
1693 76 300 3 
1694 76 75 1 
1695 83 307 2 
1696 307 308 1 
1697 66 60 3 
1698 66 65 1 
1699 66 328 3 
1700 1057 1058 1 
1701 560 66 3 
1702 560 559 1 
1703 311 312 1 
1704 609 610 1 
1705 800 799 1 
1706 551 1323 2 
1707 783 784 1 
1708 1309 1315 2 
1709 1532 1570 3 
1710 1532 1531 1 
1711 1532 2542 3 
1712 2542 1554 3 
1713 2542 2541 1 
1714 801 802 1 
1715 1570 1554 3 
1716 1570 1569 1 
1717 1570 2542 3 
1718 1554 1532 3 
1719 1554 1553 1 
1720 1316 1294 3 
1721 1316 1315 1 
1722 1548 1754 3 
1723 1548 1547 1 
1724 1754 2032 3 
1725 1754 1753 1 
1726 2032 1548 3 
1727 2032 2031 1 
1728 1340 1830 3 
1729 1830 1829 1 
1730 1312 1311 1 
1731 1794 1312 3 
1732 1303 1304 1 
1733 2107 2108 1 
1734 2035 2036 1 
1735 2067 2068 1 
1736 2067 2587 2 
1737 2323 2324 1 
1738 2323 2557 2 
1739 1578 1806 3 
1740 1578 1577 1 
1741 2588 1578 3 
1742 2588 2587 1 
1743 2557 2558 1 
1744 2045 2046 1 
1745 2837 2838 1 
1746 2837 3059 2 
1747 2066 3330 3 
1748 3565 3566 1 
1749 2570 3328 3 
1750 2570 2569 1 
1751 3043 3044 1 
1752 3043 3327 2 
1753 2809 2810 1 