ITEM: TIMESTEP
8800
ITEM: NUMBER OF ENTRIES
3125
ITEM: BOX BOUNDS pp pp ff
0.0000000000000000e+00 7.2168784000000002e+01
0.0000000000000000e+00 7.2168784000000002e+01
0.0000000000000000e+00 1.2000000000000000e+01
ITEM: ENTRIES index c_1[1] c_1[2] c_1[3]
1 745 746 1 
2 253 254 1 
3 1501 1502 1 
4 1743 1744 1 
5 2743 2744 1 
6 1995 1996 1 
7 2503 2504 1 
8 2481 2482 1 
9 2513 2514 1 
10 2261 2262 1 
11 2731 2732 1 
12 3011 3012 1 
13 3013 3014 1 
14 3493 3494 1 
15 4253 4254 1 
16 3511 3512 1 
17 3743 3744 1 
18 4231 4232 1 
19 4011 4012 1 
20 4501 4502 1 
21 4499 4500 1 
22 4999 5000 1 
23 6003 6004 1 
24 6231 6232 1 
25 511 512 1 
26 523 524 1 
27 501 502 1 
28 1023 1024 1 
29 1251 1252 1 
30 525 526 1 
31 1763 1764 1 
32 1271 1272 1 
33 1761 1762 1 
34 1515 1516 1 
35 2255 2256 1 
36 2281 2282 1 
37 2763 2764 1 
38 3251 3252 1 
39 2285 2286 1 
40 2771 2772 1 
41 2511 2512 1 
42 2767 2768 1 
43 3021 3022 1 
44 3271 3272 1 
45 4021 4022 1 
46 3771 3772 1 
47 3773 3774 1 
48 5011 5012 1 
49 5013 5014 1 
50 5263 5264 1 
51 5281 5282 1 
52 5533 5534 1 
53 5021 5022 1 
54 5761 5762 1 
55 6001 6002 1 
56 5515 5516 1 
57 6023 6024 1 
58 6013 6014 1 
59 21 22 1 
60 521 522 1 
61 539 540 1 
62 1039 1040 1 
63 1021 1022 1 
64 1033 1034 1 
65 281 282 1 
66 1041 1042 1 
67 1771 1772 1 
68 1511 1512 1 
69 1281 1282 1 
70 2271 2272 1 
71 2535 2536 1 
72 2293 2294 1 
73 2531 2532 1 
74 2765 2766 1 
75 3281 3282 1 
76 3531 3532 1 
77 3533 3534 1 
78 3535 3536 1 
79 4523 4524 1 
80 4269 4270 1 
81 4031 4032 1 
82 4271 4272 1 
83 4767 4768 1 
84 5025 5026 1 
85 4771 4772 1 
86 5015 5016 1 
87 5003 5004 1 
88 5283 5284 1 
89 5271 5272 1 
90 5779 5780 1 
91 5777 5778 1 
92 261 262 1 
93 6011 6012 1 
94 11 12 1 
95 35 36 1 
96 31 32 1 
97 33 34 1 
98 531 532 1 
99 541 542 1 
100 6035 6036 1 
101 6041 6042 1 
102 273 274 1 
103 775 776 1 
104 783 784 1 
105 1303 1304 1 
106 1541 1542 1 
107 1781 1782 1 
108 1531 1532 1 
109 1283 1284 1 
110 2541 2542 1 
111 2033 2034 1 
112 1773 1774 1 
113 2021 2022 1 
114 3055 3056 1 
115 3291 3292 1 
116 3031 3032 1 
117 3283 3284 1 
118 3521 3522 1 
119 3033 3034 1 
120 3781 3782 1 
121 4531 4532 1 
122 4281 4282 1 
123 4291 4292 1 
124 5291 5292 1 
125 4293 4294 1 
126 4527 4528 1 
127 5031 5032 1 
128 5295 5296 1 
129 5801 5802 1 
130 6031 6032 1 
131 6051 6052 1 
132 537 538 1 
133 51 52 1 
134 561 562 1 
135 321 322 1 
136 553 554 1 
137 815 816 1 
138 533 534 1 
139 791 792 1 
140 801 802 1 
141 1067 1068 1 
142 1053 1054 1 
143 1793 1794 1 
144 2807 2808 1 
145 3043 3044 1 
146 2551 2552 1 
147 3035 3036 1 
148 2801 2802 1 
149 2523 2524 1 
150 3541 3542 1 
151 3303 3304 1 
152 3301 3302 1 
153 4051 4052 1 
154 4551 4552 1 
155 4553 4554 1 
156 4301 4302 1 
157 5061 5062 1 
158 4303 4304 1 
159 4803 4804 1 
160 4813 4814 1 
161 5041 5042 1 
162 5541 5542 1 
163 5823 5824 1 
164 5785 5786 1 
165 43 44 1 
166 5791 5792 1 
167 6071 6072 1 
168 6043 6044 1 
169 323 324 1 
170 543 544 1 
171 313 314 1 
172 551 552 1 
173 827 828 1 
174 315 316 1 
175 1563 1564 1 
176 1293 1294 1 
177 1333 1334 1 
178 1573 1574 1 
179 1571 1572 1 
180 2543 2544 1 
181 2331 2332 1 
182 2811 2812 1 
183 2805 2806 1 
184 3051 3052 1 
185 2583 2584 1 
186 2813 2814 1 
187 3295 3296 1 
188 2821 2822 1 
189 3071 3072 1 
190 3581 3582 1 
191 3565 3566 1 
192 3559 3560 1 
193 3573 3574 1 
194 4063 4064 1 
195 5071 5072 1 
196 5331 5332 1 
197 4823 4824 1 
198 5301 5302 1 
199 6061 6062 1 
200 5813 5814 1 
201 5557 5558 1 
202 73 74 1 
203 63 64 1 
204 6081 6082 1 
205 303 304 1 
206 823 824 1 
207 1323 1324 1 
208 581 582 1 
209 1071 1072 1 
210 1083 1084 1 
211 2073 2074 1 
212 2341 2342 1 
213 2581 2582 1 
214 2561 2562 1 
215 3313 3314 1 
216 3321 3322 1 
217 3589 3590 1 
218 3571 3572 1 
219 4321 4322 1 
220 4573 4574 1 
221 4581 4582 1 
222 4335 4336 1 
223 4831 4832 1 
224 5087 5088 1 
225 5593 5594 1 
226 5333 5334 1 
227 5561 5562 1 
228 6083 6084 1 
229 6073 6074 1 
230 331 332 1 
231 6089 6090 1 
232 585 586 1 
233 821 822 1 
234 563 564 1 
235 1351 1352 1 
236 1587 1588 1 
237 1317 1318 1 
238 1103 1104 1 
239 1325 1326 1 
240 1821 1822 1 
241 2333 2334 1 
242 1811 1812 1 
243 2353 2354 1 
244 2851 2852 1 
245 2335 2336 1 
246 3061 3062 1 
247 3585 3586 1 
248 3331 3332 1 
249 3831 3832 1 
250 3601 3602 1 
251 3833 3834 1 
252 3821 3822 1 
253 4071 4072 1 
254 4081 4082 1 
255 4853 4854 1 
256 4605 4606 1 
257 4821 4822 1 
258 4331 4332 1 
259 5591 5592 1 
260 6095 6096 1 
261 591 592 1 
262 113 114 1 
263 601 602 1 
264 831 832 1 
265 1341 1342 1 
266 841 842 1 
267 1081 1082 1 
268 1343 1344 1 
269 1835 1836 1 
270 1857 1858 1 
271 2841 2842 1 
272 2845 2846 1 
273 2833 2834 1 
274 3083 3084 1 
275 3351 3352 1 
276 3111 3112 1 
277 3853 3854 1 
278 3341 3342 1 
279 3615 3616 1 
280 3863 3864 1 
281 3343 3344 1 
282 3857 3858 1 
283 3851 3852 1 
284 4091 4092 1 
285 4875 4876 1 
286 5345 5346 1 
287 5091 5092 1 
288 5097 5098 1 
289 5105 5106 1 
290 5347 5348 1 
291 6103 6104 1 
292 101 102 1 
293 343 344 1 
294 361 362 1 
295 1349 1350 1 
296 1101 1102 1 
297 881 882 1 
298 861 862 1 
299 1091 1092 1 
300 1113 1114 1 
301 621 622 1 
302 1121 1122 1 
303 1605 1606 1 
304 1851 1852 1 
305 1843 1844 1 
306 2373 2374 1 
307 2615 2616 1 
308 2101 2102 1 
309 2863 2864 1 
310 2611 2612 1 
311 2861 2862 1 
312 4103 4104 1 
313 3861 3862 1 
314 4105 4106 1 
315 4101 4102 1 
316 4113 4114 1 
317 4611 4612 1 
318 4371 4372 1 
319 5093 5094 1 
320 5601 5602 1 
321 4845 4846 1 
322 5355 5356 1 
323 5611 5612 1 
324 877 878 1 
325 369 370 1 
326 1623 1624 1 
327 1353 1354 1 
328 1615 1616 1 
329 1875 1876 1 
330 2613 2614 1 
331 2121 2122 1 
332 2363 2364 1 
333 2873 2874 1 
334 2875 2876 1 
335 2853 2854 1 
336 3131 3132 1 
337 2893 2894 1 
338 3375 3376 1 
339 3871 3872 1 
340 4121 4122 1 
341 4871 4872 1 
342 4881 4882 1 
343 4591 4592 1 
344 5127 5128 1 
345 5375 5376 1 
346 5119 5120 1 
347 5637 5638 1 
348 5873 5874 1 
349 5861 5862 1 
350 6133 6134 1 
351 373 374 1 
352 613 614 1 
353 633 634 1 
354 875 876 1 
355 1131 1132 1 
356 1631 1632 1 
357 1401 1402 1 
358 2143 2144 1 
359 1393 1394 1 
360 2131 2132 1 
361 2111 2112 1 
362 2381 2382 1 
363 3133 3134 1 
364 2377 2378 1 
365 2621 2622 1 
366 3121 3122 1 
367 3633 3634 1 
368 3621 3622 1 
369 3865 3866 1 
370 4131 4132 1 
371 4395 4396 1 
372 4631 4632 1 
373 4625 4626 1 
374 5131 5132 1 
375 5361 5362 1 
376 4897 4898 1 
377 5153 5154 1 
378 5381 5382 1 
379 5635 5636 1 
380 5625 5626 1 
381 5123 5124 1 
382 5633 5634 1 
383 5623 5624 1 
384 6141 6142 1 
385 111 112 1 
386 6121 6122 1 
387 121 122 1 
388 151 152 1 
389 891 892 1 
390 911 912 1 
391 901 902 1 
392 1383 1384 1 
393 1621 1622 1 
394 895 896 1 
395 1643 1644 1 
396 1395 1396 1 
397 1133 1134 1 
398 1143 1144 1 
399 1883 1884 1 
400 1881 1882 1 
401 1891 1892 1 
402 2141 2142 1 
403 1871 1872 1 
404 2393 2394 1 
405 3643 3644 1 
406 2871 2872 1 
407 2913 2914 1 
408 3631 3632 1 
409 2905 2906 1 
410 4141 4142 1 
411 3641 3642 1 
412 3901 3902 1 
413 4641 4642 1 
414 4633 4634 1 
415 4643 4644 1 
416 5141 5142 1 
417 4393 4394 1 
418 5143 5144 1 
419 5151 5152 1 
420 4883 4884 1 
421 5641 5642 1 
422 5373 5374 1 
423 5383 5384 1 
424 5407 5408 1 
425 6143 6144 1 
426 143 144 1 
427 1425 1426 1 
428 1897 1898 1 
429 1901 1902 1 
430 2151 2152 1 
431 2391 2392 1 
432 1893 1894 1 
433 2661 2662 1 
434 3151 3152 1 
435 3161 3162 1 
436 3143 3144 1 
437 3163 3164 1 
438 3153 3154 1 
439 3893 3894 1 
440 4167 4168 1 
441 4403 4404 1 
442 4401 4402 1 
443 4673 4674 1 
444 4663 4664 1 
445 4911 4912 1 
446 4901 4902 1 
447 4865 4866 1 
448 5161 5162 1 
449 4923 4924 1 
450 4653 4654 1 
451 5663 5664 1 
452 5391 5392 1 
453 415 416 1 
454 401 402 1 
455 655 656 1 
456 411 412 1 
457 913 914 1 
458 185 186 1 
459 439 440 1 
460 925 926 1 
461 413 414 1 
462 1163 1164 1 
463 1175 1176 1 
464 1661 1662 1 
465 1913 1914 1 
466 2413 2414 1 
467 2185 2186 1 
468 2655 2656 1 
469 3185 3186 1 
470 2933 2934 1 
471 3665 3666 1 
472 4157 4158 1 
473 3661 3662 1 
474 3923 3924 1 
475 4421 4422 1 
476 4153 4154 1 
477 4155 4156 1 
478 4931 4932 1 
479 4415 4416 1 
480 4661 4662 1 
481 5171 5172 1 
482 5901 5902 1 
483 6161 6162 1 
484 173 174 1 
485 6151 6152 1 
486 443 444 1 
487 421 422 1 
488 6175 6176 1 
489 431 432 1 
490 673 674 1 
491 931 932 1 
492 943 944 1 
493 1411 1412 1 
494 1911 1912 1 
495 1665 1666 1 
496 1949 1950 1 
497 1923 1924 1 
498 2437 2438 1 
499 2901 2902 1 
500 2691 2692 1 
501 2669 2670 1 
502 2681 2682 1 
503 2925 2926 1 
504 3423 3424 1 
505 3431 3432 1 
506 3401 3402 1 
507 3675 3676 1 
508 3671 3672 1 
509 4691 4692 1 
510 4443 4444 1 
511 5925 5926 1 
512 5411 5412 1 
513 5921 5922 1 
514 5671 5672 1 
515 5933 5934 1 
516 5911 5912 1 
517 6163 6164 1 
518 6181 6182 1 
519 205 206 1 
520 177 178 1 
521 935 936 1 
522 941 942 1 
523 955 956 1 
524 1171 1172 1 
525 1191 1192 1 
526 1691 1692 1 
527 1695 1696 1 
528 1441 1442 1 
529 1933 1934 1 
530 1693 1694 1 
531 2935 2936 1 
532 2193 2194 1 
533 2431 2432 1 
534 2683 2684 1 
535 3171 3172 1 
536 3195 3196 1 
537 3221 3222 1 
538 3673 3674 1 
539 3193 3194 1 
540 3421 3422 1 
541 3711 3712 1 
542 4161 4162 1 
543 3931 3932 1 
544 3691 3692 1 
545 4431 4432 1 
546 4683 4684 1 
547 4195 4196 1 
548 4945 4946 1 
549 5431 5432 1 
550 5673 5674 1 
551 5421 5422 1 
552 5447 5448 1 
553 5195 5196 1 
554 5425 5426 1 
555 5443 5444 1 
556 5935 5936 1 
557 5941 5942 1 
558 6203 6204 1 
559 193 194 1 
560 6173 6174 1 
561 6205 6206 1 
562 183 184 1 
563 451 452 1 
564 661 662 1 
565 699 700 1 
566 1181 1182 1 
567 1951 1952 1 
568 1943 1944 1 
569 1715 1716 1 
570 2195 2196 1 
571 2201 2202 1 
572 2689 2690 1 
573 2955 2956 1 
574 2451 2452 1 
575 2721 2722 1 
576 2945 2946 1 
577 3201 3202 1 
578 4445 4446 1 
579 4681 4682 1 
580 4935 4936 1 
581 4965 4966 1 
582 5183 5184 1 
583 5693 5694 1 
584 5953 5954 1 
585 5463 5464 1 
586 5453 5454 1 
587 6195 6196 1 
588 441 442 1 
589 6191 6192 1 
590 5691 5692 1 
591 461 462 1 
592 971 972 1 
593 951 952 1 
594 211 212 1 
595 223 224 1 
596 191 192 1 
597 1225 1226 1 
598 1461 1462 1 
599 1203 1204 1 
600 1481 1482 1 
601 1467 1468 1 
602 1711 1712 1 
603 2723 2724 1 
604 3213 3214 1 
605 2701 2702 1 
606 3455 3456 1 
607 3461 3462 1 
608 3463 3464 1 
609 3473 3474 1 
610 3951 3952 1 
611 4463 4464 1 
612 4471 4472 1 
613 3695 3696 1 
614 4951 4952 1 
615 4707 4708 1 
616 4961 4962 1 
617 5191 5192 1 
618 5451 5452 1 
619 5461 5462 1 
620 5713 5714 1 
621 5951 5952 1 
622 5721 5722 1 
623 5965 5966 1 
624 5703 5704 1 
625 6211 6212 1 
626 203 204 1 
627 481 482 1 
628 463 464 1 
629 711 712 1 
630 221 222 1 
631 1227 1228 1 
632 1201 1202 1 
633 957 958 1 
634 1451 1452 1 
635 1221 1222 1 
636 1475 1476 1 
637 1713 1714 1 
638 2211 2212 1 
639 1473 1474 1 
640 2971 2972 1 
641 2973 2974 1 
642 2975 2976 1 
643 3233 3234 1 
644 3963 3964 1 
645 3975 3976 1 
646 3983 3984 1 
647 3973 3974 1 
648 4221 4222 1 
649 3971 3972 1 
650 4963 4964 1 
651 4461 4462 1 
652 5215 5216 1 
653 4483 4484 1 
654 4731 4732 1 
655 5221 5222 1 
656 5225 5226 1 
657 4991 4992 1 
658 5211 5212 1 
659 5971 5972 1 
660 5985 5986 1 
661 6213 6214 1 
662 6215 6216 1 
663 243 244 1 
664 483 484 1 
665 733 734 1 
666 975 976 1 
667 751 752 1 
668 1231 1232 1 
669 1493 1494 1 
670 983 984 1 
671 1233 1234 1 
672 1485 1486 1 
673 1983 1984 1 
674 1735 1736 1 
675 2243 2244 1 
676 2233 2234 1 
677 2487 2488 1 
678 1961 1962 1 
679 2737 2738 1 
680 2475 2476 1 
681 3231 3232 1 
682 3741 3742 1 
683 4001 4002 1 
684 3991 3992 1 
685 4711 4712 1 
686 4741 4742 1 
687 4749 4750 1 
688 4735 4736 1 
689 5213 5214 1 
690 5491 5492 1 
691 5731 5732 1 
692 6233 6234 1 
693 5723 5724 1 
694 1 2 1 
695 765 766 1 
696 473 474 1 
697 1003 1004 1 
698 505 506 1 
699 1001 1002 1 
700 981 982 1 
701 997 998 1 
702 1981 1982 1 
703 1755 1756 1 
704 1491 1492 1 
705 2001 2002 1 
706 1503 1504 1 
707 2251 2252 1 
708 2011 2012 1 
709 2221 2222 1 
710 2241 2242 1 
711 2499 2500 1 
712 2231 2232 1 
713 2991 2992 1 
714 3001 3002 1 
715 2489 2490 1 
716 3481 3482 1 
717 3757 3758 1 
718 3255 3256 1 
719 3253 3254 1 
720 3495 3496 1 
721 3731 3732 1 
722 4491 4492 1 
723 3721 3722 1 
724 3751 3752 1 
725 4503 4504 1 
726 4251 4252 1 
727 4985 4986 1 
728 4723 4724 1 
729 4493 4494 1 
730 6245 6246 1 
731 5741 5742 1 
732 5501 5502 1 
733 241 242 1 
734 6223 6224 1 
735 5983 5984 1 
736 5993 5994 1 
737 245 246 1 
738 5981 5982 1 
739 763 764 1 
740 265 266 1 
741 263 264 1 
742 29 30 1 
743 247 248 1 
744 271 272 1 
745 1241 1242 1 
746 25 26 1 
747 233 234 1 
748 1017 1018 1 
749 1013 1014 1 
750 1005 1006 1 
751 1265 1266 1 
752 1257 1258 1 
753 1253 1254 1 
754 1509 1510 1 
755 2015 2016 1 
756 1751 1752 1 
757 2505 2506 1 
758 2273 2274 1 
759 2269 2270 1 
760 2769 2770 1 
761 2755 2756 1 
762 3241 3242 1 
763 3017 3018 1 
764 3009 3010 1 
765 3745 3746 1 
766 3501 3502 1 
767 4247 4248 1 
768 3765 3766 1 
769 4237 4238 1 
770 4245 4246 1 
771 3761 3762 1 
772 4521 4522 1 
773 4511 4512 1 
774 4259 4260 1 
775 4773 4774 1 
776 4747 4748 1 
777 5503 5504 1 
778 4753 4754 1 
779 4995 4996 1 
780 5239 5240 1 
781 5255 5256 1 
782 5749 5750 1 
783 5499 5500 1 
784 5755 5756 1 
785 5769 5770 1 
786 5763 5764 1 
787 499 500 1 
788 13 14 1 
789 251 252 1 
790 23 24 1 
791 17 18 1 
792 269 270 1 
793 3 4 1 
794 515 516 1 
795 757 758 1 
796 1029 1030 1 
797 1279 1280 1 
798 1775 1776 1 
799 777 778 1 
800 1255 1256 1 
801 1505 1506 1 
802 1765 1766 1 
803 1525 1526 1 
804 2019 2020 1 
805 2013 2014 1 
806 1753 1754 1 
807 1261 1262 1 
808 2761 2762 1 
809 2779 2780 1 
810 2025 2026 1 
811 2507 2508 1 
812 2519 2520 1 
813 2759 2760 1 
814 2773 2774 1 
815 3005 3006 1 
816 3023 3024 1 
817 2521 2522 1 
818 2515 2516 1 
819 3007 3008 1 
820 3003 3004 1 
821 3269 3270 1 
822 3515 3516 1 
823 3029 3030 1 
824 3755 3756 1 
825 3525 3526 1 
826 3779 3780 1 
827 4263 4264 1 
828 3763 3764 1 
829 4517 4518 1 
830 4277 4278 1 
831 5035 5036 1 
832 4513 4514 1 
833 4515 4516 1 
834 4261 4262 1 
835 4283 4284 1 
836 4267 4268 1 
837 4777 4778 1 
838 4279 4280 1 
839 5001 5002 1 
840 5007 5008 1 
841 5521 5522 1 
842 5277 5278 1 
843 4755 4756 1 
844 5513 5514 1 
845 5757 5758 1 
846 5775 5776 1 
847 5275 5276 1 
848 5269 5270 1 
849 5511 5512 1 
850 5517 5518 1 
851 5765 5766 1 
852 6241 6242 1 
853 6021 6022 1 
854 283 284 1 
855 1015 1016 1 
856 527 528 1 
857 767 768 1 
858 267 268 1 
859 529 530 1 
860 785 786 1 
861 535 536 1 
862 517 518 1 
863 1043 1044 1 
864 771 772 1 
865 773 774 1 
866 1025 1026 1 
867 1019 1020 1 
868 781 782 1 
869 1027 1028 1 
870 1037 1038 1 
871 1291 1292 1 
872 2041 2042 1 
873 779 780 1 
874 1537 1538 1 
875 1777 1778 1 
876 1543 1544 1 
877 2027 2028 1 
878 2283 2284 1 
879 2023 2024 1 
880 1783 1784 1 
881 2049 2050 1 
882 2295 2296 1 
883 3041 3042 1 
884 2263 2264 1 
885 2777 2778 1 
886 2277 2278 1 
887 2529 2530 1 
888 3019 3020 1 
889 2781 2782 1 
890 3263 3264 1 
891 3015 3016 1 
892 3273 3274 1 
893 2775 2776 1 
894 3025 3026 1 
895 2783 2784 1 
896 3513 3514 1 
897 3285 3286 1 
898 4045 4046 1 
899 4023 4024 1 
900 3775 3776 1 
901 3797 3798 1 
902 4017 4018 1 
903 4041 4042 1 
904 4013 4014 1 
905 4533 4534 1 
906 4787 4788 1 
907 4793 4794 1 
908 4549 4550 1 
909 4525 4526 1 
910 5253 5254 1 
911 4795 4796 1 
912 5023 5024 1 
913 4783 4784 1 
914 4781 4782 1 
915 5033 5034 1 
916 5299 5300 1 
917 5797 5798 1 
918 5525 5526 1 
919 5753 5754 1 
920 5773 5774 1 
921 5771 5772 1 
922 5535 5536 1 
923 5531 5532 1 
924 6025 6026 1 
925 6033 6034 1 
926 37 38 1 
927 6029 6030 1 
928 5795 5796 1 
929 293 294 1 
930 291 292 1 
931 275 276 1 
932 47 48 1 
933 803 804 1 
934 787 788 1 
935 297 298 1 
936 761 762 1 
937 547 548 1 
938 545 546 1 
939 793 794 1 
940 1047 1048 1 
941 1285 1286 1 
942 1289 1290 1 
943 1553 1554 1 
944 1295 1296 1 
945 1521 1522 1 
946 1031 1032 1 
947 1545 1546 1 
948 1547 1548 1 
949 1533 1534 1 
950 1801 1802 1 
951 1797 1798 1 
952 1795 1796 1 
953 2031 2032 1 
954 1321 1322 1 
955 1787 1788 1 
956 2047 2048 1 
957 2059 2060 1 
958 1799 1800 1 
959 2547 2548 1 
960 2791 2792 1 
961 2297 2298 1 
962 3289 3290 1 
963 3537 3538 1 
964 2571 2572 1 
965 3279 3280 1 
966 3547 3548 1 
967 3545 3546 1 
968 3777 3778 1 
969 2787 2788 1 
970 3795 3796 1 
971 3809 3810 1 
972 3793 3794 1 
973 3315 3316 1 
974 4061 4062 1 
975 4033 4034 1 
976 3785 3786 1 
977 4273 4274 1 
978 4299 4300 1 
979 4295 4296 1 
980 4029 4030 1 
981 5053 5054 1 
982 4535 4536 1 
983 5297 5298 1 
984 5037 5038 1 
985 5313 5314 1 
986 5551 5552 1 
987 5555 5556 1 
988 5293 5294 1 
989 5543 5544 1 
990 5549 5550 1 
991 5545 5546 1 
992 5523 5524 1 
993 5793 5794 1 
994 5781 5782 1 
995 6047 6048 1 
996 6045 6046 1 
997 6053 6054 1 
998 307 308 1 
999 6059 6060 1 
1000 6057 6058 1 
1001 49 50 1 
1002 55 56 1 
1003 301 302 1 
1004 559 560 1 
1005 555 556 1 
1006 799 800 1 
1007 807 808 1 
1008 813 814 1 
1009 1051 1052 1 
1010 295 296 1 
1011 1055 1056 1 
1012 1307 1308 1 
1013 795 796 1 
1014 1063 1064 1 
1015 1791 1792 1 
1016 2053 2054 1 
1017 1301 1302 1 
1018 1823 1824 1 
1019 1569 1570 1 
1020 1315 1316 1 
1021 2061 2062 1 
1022 1551 1552 1 
1023 2035 2036 1 
1024 2043 2044 1 
1025 1805 1806 1 
1026 2309 2310 1 
1027 2291 2292 1 
1028 2319 2320 1 
1029 2313 2314 1 
1030 2303 2304 1 
1031 2553 2554 1 
1032 3059 3060 1 
1033 3299 3300 1 
1034 3309 3310 1 
1035 3311 3312 1 
1036 3293 3294 1 
1037 2803 2804 1 
1038 3557 3558 1 
1039 3053 3054 1 
1040 3047 3048 1 
1041 2799 2800 1 
1042 3791 3792 1 
1043 2795 2796 1 
1044 3305 3306 1 
1045 3297 3298 1 
1046 3553 3554 1 
1047 4085 4086 1 
1048 4049 4050 1 
1049 3555 3556 1 
1050 4325 4326 1 
1051 4305 4306 1 
1052 4053 4054 1 
1053 4315 4316 1 
1054 4801 4802 1 
1055 4561 4562 1 
1056 4541 4542 1 
1057 4537 4538 1 
1058 4811 4812 1 
1059 4817 4818 1 
1060 4791 4792 1 
1061 4805 4806 1 
1062 5317 5318 1 
1063 5309 5310 1 
1064 5043 5044 1 
1065 5803 5804 1 
1066 6069 6070 1 
1067 5805 5806 1 
1068 6065 6066 1 
1069 57 58 1 
1070 69 70 1 
1071 75 76 1 
1072 41 42 1 
1073 811 812 1 
1074 571 572 1 
1075 1073 1074 1 
1076 1045 1046 1 
1077 1065 1066 1 
1078 1057 1058 1 
1079 805 806 1 
1080 817 818 1 
1081 1061 1062 1 
1082 1069 1070 1 
1083 1313 1314 1 
1084 1813 1814 1 
1085 1311 1312 1 
1086 1809 1810 1 
1087 1803 1804 1 
1088 2069 2070 1 
1089 2555 2556 1 
1090 2311 2312 1 
1091 1825 1826 1 
1092 2315 2316 1 
1093 2051 2052 1 
1094 2563 2564 1 
1095 2301 2302 1 
1096 2815 2816 1 
1097 2065 2066 1 
1098 2823 2824 1 
1099 2809 2810 1 
1100 3327 3328 1 
1101 2839 2840 1 
1102 3317 3318 1 
1103 3325 3326 1 
1104 3067 3068 1 
1105 3065 3066 1 
1106 3803 3804 1 
1107 3063 3064 1 
1108 4307 4308 1 
1109 3829 3830 1 
1110 4057 4058 1 
1111 3815 3816 1 
1112 3801 3802 1 
1113 4065 4066 1 
1114 4317 4318 1 
1115 4543 4544 1 
1116 4313 4314 1 
1117 3811 3812 1 
1118 3805 3806 1 
1119 4309 4310 1 
1120 4069 4070 1 
1121 4333 4334 1 
1122 4319 4320 1 
1123 4797 4798 1 
1124 4567 4568 1 
1125 5069 5070 1 
1126 5055 5056 1 
1127 5051 5052 1 
1128 4799 4800 1 
1129 5065 5066 1 
1130 4563 4564 1 
1131 5581 5582 1 
1132 5565 5566 1 
1133 5321 5322 1 
1134 5573 5574 1 
1135 5815 5816 1 
1136 5563 5564 1 
1137 5821 5822 1 
1138 5825 5826 1 
1139 6063 6064 1 
1140 5809 5810 1 
1141 83 84 1 
1142 61 62 1 
1143 99 100 1 
1144 6097 6098 1 
1145 347 348 1 
1146 329 330 1 
1147 835 836 1 
1148 589 590 1 
1149 575 576 1 
1150 597 598 1 
1151 1567 1568 1 
1152 1565 1566 1 
1153 1583 1584 1 
1154 1575 1576 1 
1155 1577 1578 1 
1156 1829 1830 1 
1157 2071 2072 1 
1158 2579 2580 1 
1159 1819 1820 1 
1160 2063 2064 1 
1161 2593 2594 1 
1162 2559 2560 1 
1163 2097 2098 1 
1164 1827 1828 1 
1165 2323 2324 1 
1166 2577 2578 1 
1167 2087 2088 1 
1168 2831 2832 1 
1169 2837 2838 1 
1170 2567 2568 1 
1171 2835 2836 1 
1172 3085 3086 1 
1173 3561 3562 1 
1174 3813 3814 1 
1175 3569 3570 1 
1176 3075 3076 1 
1177 4311 4312 1 
1178 3575 3576 1 
1179 3333 3334 1 
1180 3835 3836 1 
1181 4075 4076 1 
1182 3567 3568 1 
1183 3583 3584 1 
1184 3823 3824 1 
1185 4073 4074 1 
1186 4341 4342 1 
1187 4571 4572 1 
1188 4587 4588 1 
1189 4569 4570 1 
1190 5083 5084 1 
1191 4565 4566 1 
1192 5073 5074 1 
1193 4833 4834 1 
1194 4575 4576 1 
1195 4583 4584 1 
1196 4835 4836 1 
1197 5077 5078 1 
1198 5079 5080 1 
1199 5811 5812 1 
1200 4825 4826 1 
1201 5075 5076 1 
1202 5337 5338 1 
1203 5575 5576 1 
1204 5325 5326 1 
1205 5327 5328 1 
1206 5571 5572 1 
1207 6087 6088 1 
1208 91 92 1 
1209 5827 5828 1 
1210 6085 6086 1 
1211 6075 6076 1 
1212 5817 5818 1 
1213 327 328 1 
1214 325 326 1 
1215 71 72 1 
1216 593 594 1 
1217 587 588 1 
1218 81 82 1 
1219 849 850 1 
1220 337 338 1 
1221 1337 1338 1 
1222 1107 1108 1 
1223 1831 1832 1 
1224 1581 1582 1 
1225 1087 1088 1 
1226 1085 1086 1 
1227 1591 1592 1 
1228 1097 1098 1 
1229 1077 1078 1 
1230 2091 2092 1 
1231 1335 1336 1 
1232 2075 2076 1 
1233 2085 2086 1 
1234 2107 2108 1 
1235 2077 2078 1 
1236 2089 2090 1 
1237 2343 2344 1 
1238 2321 2322 1 
1239 2585 2586 1 
1240 2591 2592 1 
1241 2349 2350 1 
1242 2601 2602 1 
1243 3073 3074 1 
1244 3079 3080 1 
1245 3095 3096 1 
1246 3551 3552 1 
1247 3087 3088 1 
1248 3563 3564 1 
1249 3093 3094 1 
1250 3335 3336 1 
1251 3345 3346 1 
1252 3603 3604 1 
1253 3579 3580 1 
1254 3361 3362 1 
1255 4327 4328 1 
1256 3825 3826 1 
1257 4089 4090 1 
1258 3599 3600 1 
1259 4347 4348 1 
1260 4351 4352 1 
1261 4589 4590 1 
1262 4829 4830 1 
1263 5349 5350 1 
1264 5095 5096 1 
1265 5081 5082 1 
1266 5115 5116 1 
1267 5351 5352 1 
1268 6099 6100 1 
1269 5585 5586 1 
1270 5837 5838 1 
1271 5589 5590 1 
1272 341 342 1 
1273 93 94 1 
1274 339 340 1 
1275 353 354 1 
1276 6091 6092 1 
1277 115 116 1 
1278 97 98 1 
1279 105 106 1 
1280 335 336 1 
1281 855 856 1 
1282 349 350 1 
1283 107 108 1 
1284 583 584 1 
1285 857 858 1 
1286 851 852 1 
1287 595 596 1 
1288 1093 1094 1 
1289 1111 1112 1 
1290 1361 1362 1 
1291 1099 1100 1 
1292 847 848 1 
1293 1367 1368 1 
1294 1115 1116 1 
1295 1593 1594 1 
1296 1601 1602 1 
1297 1859 1860 1 
1298 1841 1842 1 
1299 1595 1596 1 
1300 2093 2094 1 
1301 1863 1864 1 
1302 1847 1848 1 
1303 1833 1834 1 
1304 2105 2106 1 
1305 2081 2082 1 
1306 2367 2368 1 
1307 2109 2110 1 
1308 2357 2358 1 
1309 2345 2346 1 
1310 3103 3104 1 
1311 2857 2858 1 
1312 2595 2596 1 
1313 3081 3082 1 
1314 3091 3092 1 
1315 3347 3348 1 
1316 3619 3620 1 
1317 3595 3596 1 
1318 3593 3594 1 
1319 3847 3848 1 
1320 3841 3842 1 
1321 3605 3606 1 
1322 3849 3850 1 
1323 4093 4094 1 
1324 4107 4108 1 
1325 4601 4602 1 
1326 4345 4346 1 
1327 4841 4842 1 
1328 4595 4596 1 
1329 4609 4610 1 
1330 4869 4870 1 
1331 4593 4594 1 
1332 5103 5104 1 
1333 4623 4624 1 
1334 5085 5086 1 
1335 5099 5100 1 
1336 5365 5366 1 
1337 5831 5832 1 
1338 5599 5600 1 
1339 5839 5840 1 
1340 5597 5598 1 
1341 5613 5614 1 
1342 6109 6110 1 
1343 5841 5842 1 
1344 5833 5834 1 
1345 333 334 1 
1346 6101 6102 1 
1347 125 126 1 
1348 5863 5864 1 
1349 119 120 1 
1350 363 364 1 
1351 611 612 1 
1352 1347 1348 1 
1353 6105 6106 1 
1354 599 600 1 
1355 863 864 1 
1356 871 872 1 
1357 605 606 1 
1358 1105 1106 1 
1359 869 870 1 
1360 1637 1638 1 
1361 2103 2104 1 
1362 1861 1862 1 
1363 1853 1854 1 
1364 2115 2116 1 
1365 2339 2340 1 
1366 2365 2366 1 
1367 2849 2850 1 
1368 2607 2608 1 
1369 3105 3106 1 
1370 2351 2352 1 
1371 3107 3108 1 
1372 3115 3116 1 
1373 3109 3110 1 
1374 3353 3354 1 
1375 3365 3366 1 
1376 3609 3610 1 
1377 3623 3624 1 
1378 3845 3846 1 
1379 4095 4096 1 
1380 4365 4366 1 
1381 4117 4118 1 
1382 4083 4084 1 
1383 4369 4370 1 
1384 4361 4362 1 
1385 4349 4350 1 
1386 4847 4848 1 
1387 4859 4860 1 
1388 4603 4604 1 
1389 4843 4844 1 
1390 5107 5108 1 
1391 4597 4598 1 
1392 5101 5102 1 
1393 4861 4862 1 
1394 5353 5354 1 
1395 5621 5622 1 
1396 5341 5342 1 
1397 5857 5858 1 
1398 5853 5854 1 
1399 5851 5852 1 
1400 6125 6126 1 
1401 6117 6118 1 
1402 371 372 1 
1403 127 128 1 
1404 117 118 1 
1405 635 636 1 
1406 6123 6124 1 
1407 1123 1124 1 
1408 619 620 1 
1409 365 366 1 
1410 617 618 1 
1411 879 880 1 
1412 1127 1128 1 
1413 1369 1370 1 
1414 1865 1866 1 
1415 1611 1612 1 
1416 1389 1390 1 
1417 1373 1374 1 
1418 2375 2376 1 
1419 2361 2362 1 
1420 2623 2624 1 
1421 2371 2372 1 
1422 2603 2604 1 
1423 3123 3124 1 
1424 3125 3126 1 
1425 3135 3136 1 
1426 3369 3370 1 
1427 3379 3380 1 
1428 3883 3884 1 
1429 3873 3874 1 
1430 3869 3870 1 
1431 4125 4126 1 
1432 4363 4364 1 
1433 4379 4380 1 
1434 3875 3876 1 
1435 4613 4614 1 
1436 4385 4386 1 
1437 4621 4622 1 
1438 4615 4616 1 
1439 4851 4852 1 
1440 4383 4384 1 
1441 4873 4874 1 
1442 4867 4868 1 
1443 5363 5364 1 
1444 5359 5360 1 
1445 5615 5616 1 
1446 5111 5112 1 
1447 5865 5866 1 
1448 6131 6132 1 
1449 5371 5372 1 
1450 5871 5872 1 
1451 5881 5882 1 
1452 153 154 1 
1453 6139 6140 1 
1454 123 124 1 
1455 6127 6128 1 
1456 6113 6114 1 
1457 389 390 1 
1458 5875 5876 1 
1459 625 626 1 
1460 627 628 1 
1461 883 884 1 
1462 637 638 1 
1463 653 654 1 
1464 1371 1372 1 
1465 623 624 1 
1466 1387 1388 1 
1467 1385 1386 1 
1468 1375 1376 1 
1469 1627 1628 1 
1470 1363 1364 1 
1471 2123 2124 1 
1472 1625 1626 1 
1473 2129 2130 1 
1474 1641 1642 1 
1475 2383 2384 1 
1476 1391 1392 1 
1477 2113 2114 1 
1478 1889 1890 1 
1479 1877 1878 1 
1480 2127 2128 1 
1481 2647 2648 1 
1482 2395 2396 1 
1483 2379 2380 1 
1484 2635 2636 1 
1485 2887 2888 1 
1486 2627 2628 1 
1487 2645 2646 1 
1488 3141 3142 1 
1489 3363 3364 1 
1490 3383 3384 1 
1491 3371 3372 1 
1492 4111 4112 1 
1493 4359 4360 1 
1494 4119 4120 1 
1495 4135 4136 1 
1496 3881 3882 1 
1497 4637 4638 1 
1498 4895 4896 1 
1499 4397 4398 1 
1500 5133 5134 1 
1501 4863 4864 1 
1502 5379 5380 1 
1503 4877 4878 1 
1504 5121 5122 1 
1505 5385 5386 1 
1506 5631 5632 1 
1507 5377 5378 1 
1508 6145 6146 1 
1509 5617 5618 1 
1510 395 396 1 
1511 129 130 1 
1512 399 400 1 
1513 387 388 1 
1514 165 166 1 
1515 643 644 1 
1516 131 132 1 
1517 141 142 1 
1518 641 642 1 
1519 905 906 1 
1520 391 392 1 
1521 647 648 1 
1522 631 632 1 
1523 645 646 1 
1524 1403 1404 1 
1525 1135 1136 1 
1526 1397 1398 1 
1527 1419 1420 1 
1528 1651 1652 1 
1529 1381 1382 1 
1530 1657 1658 1 
1531 2133 2134 1 
1532 2149 2150 1 
1533 1879 1880 1 
1534 2125 2126 1 
1535 2397 2398 1 
1536 2387 2388 1 
1537 2139 2140 1 
1538 2385 2386 1 
1539 2401 2402 1 
1540 2903 2904 1 
1541 2641 2642 1 
1542 3113 3114 1 
1543 2889 2890 1 
1544 3649 3650 1 
1545 2909 2910 1 
1546 2881 2882 1 
1547 3391 3392 1 
1548 3397 3398 1 
1549 3909 3910 1 
1550 3405 3406 1 
1551 3645 3646 1 
1552 3381 3382 1 
1553 3653 3654 1 
1554 3389 3390 1 
1555 3377 3378 1 
1556 3897 3898 1 
1557 3667 3668 1 
1558 3387 3388 1 
1559 4143 4144 1 
1560 3677 3678 1 
1561 3625 3626 1 
1562 4391 4392 1 
1563 3879 3880 1 
1564 3891 3892 1 
1565 4651 4652 1 
1566 4893 4894 1 
1567 4889 4890 1 
1568 4649 4650 1 
1569 4891 4892 1 
1570 4635 4636 1 
1571 4629 4630 1 
1572 5147 5148 1 
1573 5395 5396 1 
1574 5647 5648 1 
1575 5643 5644 1 
1576 5399 5400 1 
1577 5915 5916 1 
1578 5883 5884 1 
1579 6137 6138 1 
1580 6153 6154 1 
1581 377 378 1 
1582 159 160 1 
1583 6159 6160 1 
1584 6135 6136 1 
1585 893 894 1 
1586 663 664 1 
1587 909 910 1 
1588 667 668 1 
1589 405 406 1 
1590 649 650 1 
1591 903 904 1 
1592 1169 1170 1 
1593 657 658 1 
1594 927 928 1 
1595 1405 1406 1 
1596 1157 1158 1 
1597 1653 1654 1 
1598 897 898 1 
1599 2161 2162 1 
1600 2147 2148 1 
1601 1917 1918 1 
1602 1667 1668 1 
1603 2659 2660 1 
1604 2407 2408 1 
1605 2915 2916 1 
1606 2651 2652 1 
1607 2631 2632 1 
1608 2907 2908 1 
1609 2919 2920 1 
1610 2911 2912 1 
1611 3155 3156 1 
1612 3651 3652 1 
1613 4133 4134 1 
1614 3393 3394 1 
1615 3657 3658 1 
1616 4145 4146 1 
1617 3903 3904 1 
1618 3403 3404 1 
1619 4411 4412 1 
1620 4137 4138 1 
1621 4169 4170 1 
1622 4151 4152 1 
1623 4413 4414 1 
1624 4405 4406 1 
1625 4647 4648 1 
1626 4149 4150 1 
1627 4409 4410 1 
1628 4399 4400 1 
1629 4655 4656 1 
1630 4903 4904 1 
1631 5401 5402 1 
1632 4907 4908 1 
1633 5163 5164 1 
1634 4899 4900 1 
1635 5165 5166 1 
1636 5393 5394 1 
1637 5655 5656 1 
1638 5179 5180 1 
1639 5387 5388 1 
1640 5653 5654 1 
1641 5665 5666 1 
1642 5651 5652 1 
1643 5405 5406 1 
1644 5667 5668 1 
1645 5905 5906 1 
1646 5885 5886 1 
1647 157 158 1 
1648 6169 6170 1 
1649 161 162 1 
1650 163 164 1 
1651 155 156 1 
1652 665 666 1 
1653 403 404 1 
1654 417 418 1 
1655 907 908 1 
1656 1161 1162 1 
1657 651 652 1 
1658 1165 1166 1 
1659 1145 1146 1 
1660 939 940 1 
1661 1151 1152 1 
1662 1141 1142 1 
1663 1673 1674 1 
1664 1423 1424 1 
1665 1671 1672 1 
1666 1675 1676 1 
1667 1427 1428 1 
1668 1659 1660 1 
1669 1919 1920 1 
1670 1915 1916 1 
1671 1663 1664 1 
1672 1903 1904 1 
1673 2411 2412 1 
1674 2173 2174 1 
1675 1921 1922 1 
1676 2667 2668 1 
1677 2175 2176 1 
1678 2405 2406 1 
1679 2153 2154 1 
1680 2403 2404 1 
1681 2423 2424 1 
1682 2663 2664 1 
1683 2415 2416 1 
1684 2679 2680 1 
1685 2653 2654 1 
1686 2921 2922 1 
1687 3177 3178 1 
1688 3681 3682 1 
1689 3179 3180 1 
1690 3435 3436 1 
1691 3411 3412 1 
1692 3655 3656 1 
1693 3173 3174 1 
1694 3663 3664 1 
1695 4163 4164 1 
1696 4667 4668 1 
1697 4165 4166 1 
1698 4407 4408 1 
1699 4915 4916 1 
1700 3913 3914 1 
1701 4665 4666 1 
1702 4913 4914 1 
1703 4937 4938 1 
1704 5175 5176 1 
1705 4921 4922 1 
1706 5167 5168 1 
1707 5423 5424 1 
1708 5155 5156 1 
1709 5429 5430 1 
1710 5413 5414 1 
1711 5893 5894 1 
1712 5417 5418 1 
1713 5909 5910 1 
1714 6179 6180 1 
1715 5661 5662 1 
1716 6171 6172 1 
1717 5657 5658 1 
1718 6167 6168 1 
1719 6155 6156 1 
1720 6157 6158 1 
1721 5903 5904 1 
1722 423 424 1 
1723 5923 5924 1 
1724 5929 5930 1 
1725 6177 6178 1 
1726 5917 5918 1 
1727 181 182 1 
1728 433 434 1 
1729 175 176 1 
1730 689 690 1 
1731 1173 1174 1 
1732 677 678 1 
1733 921 922 1 
1734 425 426 1 
1735 933 934 1 
1736 1179 1180 1 
1737 1433 1434 1 
1738 1413 1414 1 
1739 1445 1446 1 
1740 1453 1454 1 
1741 1941 1942 1 
1742 1155 1156 1 
1743 1431 1432 1 
1744 2187 2188 1 
1745 2183 2184 1 
1746 2181 2182 1 
1747 2421 2422 1 
1748 1699 1700 1 
1749 2671 2672 1 
1750 2433 2434 1 