ITEM: TIMESTEP
97680
ITEM: NUMBER OF ENTRIES
8196
ITEM: BOX BOUNDS pp pp ff
0.0000000000000000e+00 7.2168784000000002e+01
0.0000000000000000e+00 7.2168784000000002e+01
0.0000000000000000e+00 1.2000000000000000e+01
ITEM: ENTRIES index c_1[1] c_1[2] c_1[3]
1 5731 5732 1 
2 6022 248 3 
3 6022 6021 1 
4 34 248 3 
5 34 33 1 
6 34 6022 3 
7 248 12 3 
8 248 247 1 
9 12 34 3 
10 12 11 1 
11 12 6022 3 
12 244 243 1 
13 6002 244 3 
14 509 1243 2 
15 1758 1020 3 
16 1758 1757 1 
17 2276 2018 3 
18 2276 2275 1 
19 2754 2276 3 
20 2754 2753 1 
21 2508 2276 3 
22 2508 2507 1 
23 2508 2754 3 
24 2018 2508 3 
25 2018 2017 1 
26 2018 2754 3 
27 1504 2252 3 
28 1504 1503 1 
29 2223 3447 2 
30 2252 2732 3 
31 2252 2251 1 
32 2252 2762 3 
33 2511 2512 1 
34 2511 2767 2 
35 2251 2489 2 
36 3262 3788 3 
37 3262 3261 1 
38 2518 3262 3 
39 2518 2517 1 
40 2518 3788 3 
41 3448 3012 3 
42 3448 3447 1 
43 2262 3262 3 
44 2262 2261 1 
45 2262 2518 3 
46 3012 2490 3 
47 3012 3011 1 
48 3788 2262 3 
49 3788 3787 1 
50 2248 3012 3 
51 2248 2247 1 
52 2248 3448 3 
53 2490 2248 3 
54 2490 2489 1 
55 2490 3448 3 
56 2991 3277 2 
57 3016 3798 3 
58 3016 3015 1 
59 3812 3016 3 
60 3812 3811 1 
61 3798 3812 3 
62 3798 3797 1 
63 4228 4227 1 
64 29 251 2 
65 6010 6009 1 
66 6010 5766 3 
67 5766 5765 1 
68 5766 6242 3 
69 6001 6002 1 
70 6001 6009 2 
71 545 553 2 
72 762 1526 3 
73 762 761 1 
74 1526 320 3 
75 1526 1525 1 
76 320 762 3 
77 320 319 1 
78 1282 1772 3 
79 1282 1281 1 
80 1282 1522 3 
81 1774 1282 3 
82 1774 1773 1 
83 1772 1774 3 
84 1772 1771 1 
85 2001 2002 1 
86 2001 2485 2 
87 2510 2509 1 
88 1768 2510 3 
89 2753 2773 2 
90 2773 2774 1 
91 1519 2275 2 
92 2531 2731 2 
93 2777 3787 2 
94 3769 4503 2 
95 3770 3769 1 
96 4042 3996 3 
97 4042 4041 1 
98 4500 4276 3 
99 4500 4499 1 
100 4048 4500 3 
101 4048 4047 1 
102 4528 5582 3 
103 4528 4527 1 
104 4528 5040 3 
105 4528 5314 3 
106 5040 5582 3 
107 5040 5039 1 
108 5314 5040 3 
109 5314 5313 1 
110 5582 5314 3 
111 5582 5581 1 
112 530 208 3 
113 5003 5515 2 
114 22 512 3 
115 22 274 3 
116 22 6242 3 
117 6242 6010 3 
118 274 273 1 
119 274 6010 3 
120 512 511 1 
121 512 274 3 
122 512 5766 3 
123 19 39 2 
124 19 20 1 
125 518 786 3 
126 518 517 1 
127 518 790 3 
128 1330 1329 1 
129 20 1330 3 
130 786 296 3 
131 786 785 1 
132 786 790 3 
133 5804 292 3 
134 296 518 3 
135 296 295 1 
136 292 291 1 
137 1015 1016 1 
138 1015 5771 2 
139 790 296 3 
140 790 789 1 
141 546 792 3 
142 546 545 1 
143 546 1068 3 
144 792 554 3 
145 792 791 1 
146 792 1068 3 
147 554 546 3 
148 554 553 1 
149 554 1068 3 
150 1038 772 3 
151 1038 1037 1 
152 1032 1038 3 
153 1032 1031 1 
154 772 1032 3 
155 772 771 1 
156 1267 1549 2 
157 1281 1541 2 
158 1550 1530 3 
159 1550 1549 1 
160 1550 2056 3 
161 2313 2775 2 
162 2271 2763 2 
163 1520 2296 3 
164 1520 1519 1 
165 1520 2818 3 
166 2818 2296 3 
167 2818 2817 1 
168 2314 1520 3 
169 2314 2313 1 
170 2314 2818 3 
171 2296 2314 3 
172 2296 2295 1 
173 3252 2282 3 
174 3252 3251 1 
175 2282 1784 3 
176 2282 2281 1 
177 3780 3779 1 
178 2281 2529 2 
179 2528 3780 3 
180 3803 3804 1 
181 3803 4051 2 
182 3501 3539 2 
183 4012 3770 3 
184 3502 3501 1 
185 3992 3502 3 
186 3539 3540 1 
187 4524 4523 1 
188 3540 4524 3 
189 4735 4736 1 
190 5259 5737 2 
191 5760 4804 3 
192 5760 5759 1 
193 4804 5284 3 
194 4804 4803 1 
195 5296 4804 3 
196 5296 5295 1 
197 5296 5760 3 
198 5284 5296 3 
199 5284 5283 1 
200 5284 5760 3 
201 27 6033 2 
202 5803 5804 1 
203 557 789 2 
204 1268 1760 3 
205 1268 1267 1 
206 1278 1268 3 
207 1278 1277 1 
208 1278 1760 3 
209 1278 1536 3 
210 1536 1268 3 
211 1536 1535 1 
212 1760 1536 3 
213 1760 1759 1 
214 289 1759 2 
215 1792 2308 3 
216 1792 1791 1 
217 2308 1290 3 
218 2308 2307 1 
219 1542 1792 3 
220 1542 1541 1 
221 1542 2308 3 
222 1290 1792 3 
223 1290 1289 1 
224 1290 1542 3 
225 2284 1778 3 
226 2284 2283 1 
227 1292 2284 3 
228 1292 1291 1 
229 1796 2564 3 
230 1796 1795 1 
231 1796 2776 3 
232 1796 2044 3 
233 2776 2044 3 
234 2776 2775 1 
235 1778 1292 3 
236 1778 1777 1 
237 2044 2564 3 
238 2044 2043 1 
239 2564 2776 3 
240 2564 2563 1 
241 1784 3252 3 
242 1784 1783 1 
243 2272 2271 1 
244 2546 2272 3 
245 1783 3035 2 
246 2551 2552 1 
247 4801 4802 1 
248 5332 5294 3 
249 5332 5331 1 
250 5571 5595 2 
251 5261 5987 2 
252 5821 5822 1 
253 784 538 3 
254 784 783 1 
255 784 6044 3 
256 322 538 3 
257 322 321 1 
258 322 784 3 
259 538 6044 3 
260 538 537 1 
261 5551 6049 2 
262 6044 322 3 
263 6044 6043 1 
264 313 559 2 
265 69 589 2 
266 5822 5838 3 
267 70 798 3 
268 70 69 1 
269 70 72 3 
270 798 314 3 
271 798 797 1 
272 314 70 3 
273 314 313 1 
274 72 314 3 
275 72 71 1 
276 72 798 3 
277 71 799 2 
278 1301 1569 2 
279 2316 1096 3 
280 1823 2289 2 
281 1333 2307 2 
282 1824 1800 3 
283 1824 1823 1 
284 1289 2283 2 
285 1800 2292 3 
286 1800 1799 1 
287 1800 2022 3 
288 2292 1824 3 
289 2292 2291 1 
290 1539 1791 2 
291 2022 1824 3 
292 2022 2021 1 
293 2022 2292 3 
294 1795 2053 2 
295 3602 3832 3 
296 3602 3601 1 
297 3840 3602 3 
298 3840 3839 1 
299 3832 3840 3 
300 3832 3831 1 
301 3310 3792 3 
302 3310 3309 1 
303 3292 3310 3 
304 3292 3291 1 
305 3792 3292 3 
306 3792 3791 1 
307 3031 3309 2 
308 3786 3785 1 
309 3860 3786 3 
310 3332 4588 3 
311 3332 3331 1 
312 4086 3332 3 
313 4086 4085 1 
314 4086 4588 3 
315 4588 3776 3 
316 4588 4587 1 
317 3776 3332 3 
318 3776 3775 1 
319 3776 4086 3 
320 3331 3567 2 
321 3305 3581 2 
322 5043 5317 2 
323 5044 5302 3 
324 5044 5043 1 
325 329 330 1 
326 329 561 2 
327 75 6093 2 
328 783 5777 2 
329 56 568 3 
330 56 55 1 
331 56 62 3 
332 5838 5837 1 
333 1096 1095 1 
334 1064 1572 3 
335 1064 1063 1 
336 1064 1540 3 
337 1064 1302 3 
338 1572 1302 3 
339 1572 1571 1 
340 827 1095 2 
341 1540 1572 3 
342 1540 1539 1 
343 1302 1540 3 
344 1302 1301 1 
345 1799 2069 2 
346 2291 2353 2 
347 2353 2354 1 
348 2823 2824 1 
349 3563 3831 2 
350 3564 3298 3 
351 3564 3563 1 
352 3298 3068 3 
353 3298 3297 1 
354 3298 3814 3 
355 3814 3564 3 
356 3814 3813 1 
357 3068 3564 3 
358 3068 3067 1 
359 3068 3814 3 
360 3291 3299 2 
361 3063 3569 2 
362 3570 3588 3 
363 3570 3569 1 
364 3061 4311 2 
365 3859 4075 2 
366 3859 3860 1 
367 4291 4587 2 
368 4292 3568 3 
369 4292 4291 1 
370 4292 4300 3 
371 3568 4058 3 
372 3568 3567 1 
373 3568 4300 3 
374 2787 3589 2 
375 4058 4292 3 
376 4058 4057 1 
377 4300 4058 3 
378 4300 4299 1 
379 5596 5812 3 
380 5596 5595 1 
381 5812 5786 3 
382 5812 5811 1 
383 5082 5786 3 
384 5082 5081 1 
385 5082 5596 3 
386 5082 5812 3 
387 353 5541 2 
388 5302 5814 3 
389 5302 5301 1 
390 5302 5830 3 
391 5830 5044 3 
392 5830 5829 1 
393 5814 5044 3 
394 5814 5813 1 
395 5814 5830 3 
396 5559 6053 2 
397 5542 5820 3 
398 5542 5541 1 
399 5794 5568 3 
400 5794 5793 1 
401 5794 5808 3 
402 5568 5560 3 
403 5568 5567 1 
404 318 56 3 
405 318 317 1 
406 5820 5552 3 
407 5820 5819 1 
408 5552 5542 3 
409 5552 5551 1 
410 62 318 3 
411 62 61 1 
412 62 568 3 
413 568 318 3 
414 568 567 1 
415 5560 5808 3 
416 5560 5559 1 
417 5560 5794 3 
418 581 1065 2 
419 1102 596 3 
420 1102 1101 1 
421 1102 1814 3 
422 1092 1814 3 
423 1092 1091 1 
424 1092 1102 3 
425 1814 596 3 
426 1814 1813 1 
427 596 1092 3 
428 596 595 1 
429 571 1559 2 
430 844 1560 3 
431 844 843 1 
432 1560 1078 3 
433 1560 1559 1 
434 1078 844 3 
435 1078 1077 1 
436 2057 2309 2 
437 2058 2306 3 
438 2058 2057 1 
439 2058 3352 3 
440 2070 2069 1 
441 2070 3352 3 
442 1790 2058 3 
443 1790 1789 1 
444 1790 2354 3 
445 2354 2582 3 
446 2354 3038 3 
447 2306 1790 3 
448 2306 2305 1 
449 2306 3352 3 
450 1826 2070 3 
451 2582 2824 3 
452 1845 1846 1 
453 1825 1845 2 
454 1825 1826 1 
455 2072 2071 1 
456 2338 2072 3 
457 2809 2810 1 
458 3847 3829 2 
459 3794 3318 3 
460 3794 3793 1 
461 3318 3066 3 
462 3318 3317 1 
463 3318 3344 3 
464 3584 3583 1 
465 3596 3584 3 
466 3848 3830 3 
467 3848 3847 1 
468 4076 3064 3 
469 4076 4075 1 
470 3064 2788 3 
471 3064 3063 1 
472 2788 4076 3 
473 2788 2787 1 
474 3343 3353 2 
475 3324 3848 3 
476 3324 3323 1 
477 3830 3324 3 
478 3830 3829 1 
479 3579 3821 2 
480 3579 3580 1 
481 4310 4309 1 
482 4816 4310 3 
483 3822 4572 3 
484 3822 3821 1 
485 3822 4610 3 
486 3835 4057 2 
487 3850 3822 3 
488 3850 3849 1 
489 3850 4610 3 
490 4572 3850 3 
491 4572 4571 1 
492 4610 4572 3 
493 4610 4609 1 
494 5328 5327 1 
495 5578 5328 3 
496 6084 5816 3 
497 6084 6083 1 
498 5301 6087 2 
499 5610 74 3 
500 5610 5609 1 
501 5610 5816 3 
502 5610 6084 3 
503 5816 74 3 
504 5816 5815 1 
505 74 6084 3 
506 74 73 1 
507 5808 5568 3 
508 5808 5807 1 
509 98 5620 3 
510 98 97 1 
511 6106 98 3 
512 6106 6105 1 
513 5620 6106 3 
514 5620 5619 1 
515 345 575 2 
516 81 82 1 
517 81 563 2 
518 82 564 3 
519 82 840 3 
520 564 563 1 
521 564 840 3 
522 840 839 1 
523 595 1107 2 
524 306 338 3 
525 306 305 1 
526 306 582 3 
527 1101 1637 2 
528 1637 1638 1 
529 847 848 1 
530 847 2077 2 
531 1341 1342 1 
532 1341 1831 2 
533 2581 2582 1 
534 2340 2360 3 
535 2340 2339 1 
536 2045 2046 1 
537 2045 3043 2 
538 2110 2340 3 
539 2110 2109 1 
540 2110 2610 3 
541 2110 2360 3 
542 2360 2610 3 
543 2360 2359 1 
544 2337 2338 1 
545 2337 2827 2 
546 2580 2579 1 
547 1846 2580 3 
548 2555 2579 2 
549 3049 3050 1 
550 3049 3349 2 
551 3849 4601 2 
552 4798 3836 3 
553 4798 4797 1 
554 4544 4798 3 
555 4544 4543 1 
556 3836 4544 3 
557 3836 3835 1 
558 4321 4351 2 
559 4105 4609 2 
560 3833 4571 2 
561 3833 3834 1 
562 4340 4604 3 
563 4340 4339 1 
564 116 115 1 
565 653 1147 2 
566 1335 1336 1 
567 1335 1809 2 
568 817 2319 2 
569 2063 2064 1 
570 2319 2320 1 
571 1097 2565 2 
572 1810 2090 3 
573 1810 1809 1 
574 1812 1810 3 
575 1812 1811 1 
576 1812 2074 3 
577 1812 2090 3 
578 2064 2368 3 
579 2064 2120 3 
580 2601 2609 2 
581 2081 2089 2 
582 2825 3339 2 
583 2333 2849 2 
584 1835 2115 2 
585 2109 2607 2 
586 2828 3604 3 
587 2828 2827 1 
588 3604 3044 3 
589 3604 3603 1 
590 3044 2828 3 
591 3044 3043 1 
592 2805 2806 1 
593 2805 3603 2 
594 2845 2863 2 
595 2363 2861 2 
596 2864 2894 3 
597 2864 2863 1 
598 2894 2342 3 
599 2894 2893 1 
600 2364 2864 3 
601 2364 2363 1 
602 2364 2894 3 
603 2342 2864 3 
604 2342 2341 1 
605 2342 2364 3 
606 3091 3335 2 
607 3106 2584 3 
608 3106 3105 1 
609 3106 3112 3 
610 3092 3606 3 
611 3092 3091 1 
612 3864 3092 3 
613 3864 3863 1 
614 3360 3106 3 
615 3360 3359 1 
616 3606 3864 3 
617 3606 3605 1 
618 2584 3360 3 
619 2584 2583 1 
620 3112 2584 3 
621 3112 3111 1 
622 3112 3360 3 
623 4342 4122 3 
624 4342 4822 3 
625 4342 4341 1 
626 3111 3591 2 
627 3593 3863 2 
628 3591 3592 1 
629 4122 4822 3 
630 4122 4346 3 
631 4122 4121 1 
632 4822 4346 3 
633 4822 4821 1 
634 4346 4342 3 
635 4346 4345 1 
636 3594 3366 3 
637 3594 3593 1 
638 4332 4100 3 
639 4332 4331 1 
640 4100 4856 3 
641 4100 4099 1 
642 4324 4100 3 
643 4324 4323 1 
644 4324 4332 3 
645 4324 4856 3 
646 4856 4332 3 
647 4856 4855 1 
648 4604 5346 3 
649 4604 4603 1 
650 5346 4340 3 
651 5346 5345 1 
652 5079 5345 2 
653 4595 5093 2 
654 90 116 3 
655 1079 1080 1 
656 1079 1355 2 
657 615 1431 2 
658 630 632 3 
659 630 629 1 
660 630 1124 3 
661 630 890 3 
662 1567 1581 2 
663 2090 2074 3 
664 2090 2089 1 
665 2074 1810 3 
666 2074 2073 1 
667 2566 2565 1 
668 1870 1852 3 
669 1870 1869 1 
670 1394 1870 3 
671 1394 1393 1 
672 1852 1394 3 
673 1852 1851 1 
674 1850 2566 3 
675 1811 2623 2 
676 2602 1606 3 
677 2602 2601 1 
678 1630 1836 3 
679 1630 1629 1 
680 1630 2602 3 
681 1606 1630 3 
682 1606 1605 1 
683 1849 1850 1 
684 1836 1606 3 
685 1836 1835 1 
686 1836 2602 3 
687 1589 1849 2 
688 2624 2344 3 
689 2624 2623 1 
690 3340 2616 3 
691 3340 3339 1 
692 2608 2624 3 
693 2608 2607 1 
694 2608 2850 3 
695 2850 2624 3 
696 2850 2849 1 
697 2344 2850 3 
698 2344 2343 1 
699 2344 2608 3 
700 2826 2862 3 
701 2826 2825 1 
702 3084 2826 3 
703 3084 3083 1 
704 2862 3084 3 
705 2862 2861 1 
706 2611 3083 2 
707 2611 2612 1 
708 2873 3643 2 
709 2358 2870 3 
710 2870 2869 1 
711 3644 3844 3 
712 3644 3643 1 
713 2336 3884 3 
714 2336 2335 1 
715 2336 3874 3 
716 3874 3884 3 
717 3874 3873 1 
718 4383 4889 2 
719 4375 4376 1 
720 4375 5375 2 
721 5585 5831 2 
722 5136 5368 3 
723 5136 5135 1 
724 5124 5136 3 
725 5124 5123 1 
726 1106 1432 3 
727 1106 1105 1 
728 1432 1356 3 
729 1432 1431 1 
730 1356 1106 3 
731 1356 1355 1 
732 5638 586 3 
733 5638 5637 1 
734 586 832 3 
735 586 585 1 
736 1601 1602 1 
737 1618 2128 3 
738 1618 1617 1 
739 1618 2092 3 
740 1618 2136 3 
741 1590 2376 3 
742 1590 1589 1 
743 1862 1590 3 
744 1862 1861 1 
745 1617 2855 2 
746 1131 1139 2 
747 2376 1862 3 
748 2376 2375 1 
749 2136 2092 3 
750 2136 2135 1 
751 1605 1869 2 
752 2856 1858 3 
753 2856 2855 1 
754 2856 3340 3 
755 1858 1857 1 
756 1858 3340 3 
757 1858 2616 3 
758 2616 2856 3 
759 2616 2615 1 
760 1847 2615 2 
761 2829 3103 2 
762 3180 3179 1 
763 3380 3644 3 
764 3380 3379 1 
765 2612 3180 3 
766 3844 3380 3 
767 3844 3843 1 
768 2869 3117 2 
769 3379 3895 2 
770 3896 3140 3 
771 3896 3895 1 
772 3140 3398 3 
773 3140 3139 1 
774 3868 3140 3 
775 3868 3867 1 
776 3868 3896 3 
777 3852 3898 3 
778 3852 3851 1 
779 3898 2866 3 
780 3898 3897 1 
781 2866 3852 3 
782 2866 2865 1 
783 3143 3641 2 
784 3625 3626 1 
785 3625 3851 2 
786 2335 3123 2 
787 4870 4370 3 
788 4870 4869 1 
789 3626 4370 3 
790 3626 4870 3 
791 3626 4104 3 
792 4370 4104 3 
793 4370 4369 1 
794 4104 4870 3 
795 4104 4103 1 
796 4369 4869 2 
797 4384 4383 1 
798 4362 4384 3 
799 6116 5626 3 
800 5626 5625 1 
801 4361 4362 1 
802 4361 4585 2 
803 4371 5625 2 
804 342 102 3 
805 342 341 1 
806 342 878 3 
807 878 6086 3 
808 878 877 1 
809 6086 342 3 
810 6086 6085 1 
811 877 5875 2 
812 5876 374 3 
813 5876 5875 1 
814 166 5876 3 
815 166 165 1 
816 166 380 3 
817 374 166 3 
818 374 373 1 
819 380 374 3 
820 380 379 1 
821 380 5876 3 
822 1105 1135 2 
823 414 1376 3 
824 1376 1375 1 
825 633 634 1 
826 1358 1874 3 
827 1358 1357 1 
828 1358 1918 3 
829 1358 1900 3 
830 1874 1900 3 
831 1874 1873 1 
832 1918 1874 3 
833 1918 1917 1 
834 1900 1918 3 
835 1900 1899 1 
836 2152 2374 3 
837 2152 2151 1 
838 1651 1652 1 
839 1651 1917 2 
840 1855 1899 2 
841 2174 2152 3 
842 2174 2173 1 
843 2121 2375 2 
844 2903 3133 2 
845 2903 2904 1 
846 2407 2613 2 
847 2384 2634 3 
848 2384 2383 1 
849 2384 3104 3 
850 3104 2634 3 
851 3104 3103 1 
852 2604 2384 3 
853 2604 2603 1 
854 2604 3104 3 
855 2904 2390 3 
856 2634 2604 3 
857 2634 2633 1 
858 2390 2389 1 
859 2867 3635 2 
860 2867 2868 1 
861 3130 3636 3 
862 3130 3129 1 
863 3636 3146 3 
864 3636 3635 1 
865 3146 3130 3 
866 3146 3145 1 
867 3135 3909 2 
868 3135 3136 1 
869 3902 3618 3 
870 3902 3901 1 
871 3902 3924 3 
872 3642 3902 3 
873 3642 3641 1 
874 2878 2877 1 
875 3924 3642 3 
876 3924 3923 1 
877 5393 5394 1 
878 3618 3642 3 
879 3618 3617 1 
880 3618 3924 3 
881 4409 4901 2 
882 5121 5143 2 
883 4882 5114 3 
884 4882 4881 1 
885 5114 4638 3 
886 5114 5113 1 
887 4864 4882 3 
888 4864 4863 1 
889 4864 5114 3 
890 5362 5878 3 
891 5362 5361 1 
892 929 5877 2 
893 5858 5857 1 
894 401 402 1 
895 409 6187 2 
896 1682 1162 3 
897 1682 1681 1 
898 1682 1898 3 
899 1898 1624 3 
900 1898 1897 1 
901 1624 1162 3 
902 1624 1623 1 
903 1624 1682 3 
904 1162 1898 3 
905 1162 1161 1 
906 1882 2174 3 
907 1882 1881 1 
908 1882 2374 3 
909 1882 2152 3 
910 2374 2174 3 
911 2374 2373 1 
912 1907 2373 2 
913 2640 2408 3 
914 2640 2639 1 
915 1854 2640 3 
916 1854 1853 1 
917 1854 2406 3 
918 1854 2408 3 
919 2408 2406 3 
920 2408 2407 1 
921 2406 2640 3 
922 2406 2405 1 
923 1895 2401 2 
924 3161 4141 2 
925 3161 3162 1 
926 3910 3909 1 
927 3372 3910 3 
928 3371 3372 1 
929 5394 4678 3 
930 4678 4677 1 
931 3136 2878 3 
932 3923 4923 2 
933 4923 4924 1 
934 5144 5143 1 
935 5154 5144 3 
936 4160 4159 1 
937 4658 4160 3 
938 4397 5355 2 
939 5409 5427 2 
940 5127 5361 2 
941 930 5908 3 
942 930 929 1 
943 5908 5640 3 
944 5908 5907 1 
945 5640 930 3 
946 5640 5639 1 
947 5640 5906 3 
948 5906 930 3 
949 5906 5905 1 
950 5906 5908 3 
951 668 182 3 
952 668 667 1 
953 182 136 3 
954 182 181 1 
955 182 386 3 
956 136 668 3 
957 136 135 1 
958 136 386 3 
959 386 668 3 
960 386 385 1 
961 6188 6150 3 
962 6188 6187 1 
963 6148 416 3 
964 6148 6147 1 
965 642 144 3 
966 642 641 1 
967 642 6148 3 
968 144 6148 3 
969 144 143 1 
970 416 144 3 
971 416 415 1 
972 416 642 3 
973 1151 6159 2 
974 415 421 2 
975 953 1623 2 
976 937 1207 2 
977 937 938 1 
978 1644 940 3 
979 1644 1643 1 
980 2648 1938 3 
981 2648 2647 1 
982 2656 2934 3 
983 2656 2655 1 
984 2656 3680 3 
985 3174 2656 3 
986 3174 3173 1 
987 3174 3680 3 
988 2934 3174 3 
989 2934 2933 1 
990 3680 2934 3 
991 3680 3679 1 
992 3163 3173 2 
993 2655 3151 2 
994 3622 3621 1 
995 4924 3622 3 
996 4920 4418 3 
997 4920 4919 1 
998 4920 5428 3 
999 4920 5402 3 
1000 5428 4418 3 
1001 5428 5427 1 
1002 4418 5402 3 
1003 4418 4417 1 
1004 5402 5428 3 
1005 5402 5401 1 
1006 4657 4658 1 
1007 4657 5167 2 
1008 4893 5153 2 
1009 5153 5154 1 
1010 4400 4888 3 
1011 4400 4399 1 
1012 5194 5193 1 
1013 4888 4878 3 
1014 4888 4887 1 
1015 4878 4400 3 
1016 4878 4877 1 
1017 5161 5401 2 
1018 5434 5194 3 
1019 4663 5405 2 
1020 6168 122 3 
1021 6168 6167 1 
1022 172 914 3 
1023 172 171 1 
1024 172 430 3 
1025 172 674 3 
1026 171 5649 2 
1027 674 430 3 
1028 674 673 1 
1029 430 914 3 
1030 430 429 1 
1031 914 674 3 
1032 914 913 1 
1033 673 951 2 
1034 425 447 2 
1035 952 460 3 
1036 952 951 1 
1037 702 952 3 
1038 702 701 1 
1039 692 702 3 
1040 692 691 1 
1041 692 952 3 
1042 1152 656 3 
1043 1152 1151 1 
1044 934 422 3 
1045 934 933 1 
1046 934 1152 3 
1047 422 1152 3 
1048 422 421 1 
1049 701 1173 2 
1050 1643 1673 2 
1051 940 2130 3 
1052 940 939 1 
1053 940 1176 3 
1054 1938 2662 3 
1055 1938 1937 1 
1056 2662 2648 3 
1057 2662 2661 1 
1058 2185 2193 2 
1059 1445 1675 2 
1060 3918 3650 3 
1061 2933 3649 2 
1062 3650 3649 1 
1063 3906 3164 3 
1064 3906 3905 1 
1065 3388 3906 3 
1066 3388 3387 1 
1067 3388 3666 3 
1068 3164 3666 3 
1069 3164 3163 1 
1070 3164 3388 3 
1071 3666 3906 3 
1072 3666 3665 1 
1073 3396 3912 3 
1074 3396 3395 1 
1075 4172 3396 3 
1076 4172 4171 1 
1077 4430 4168 3 
1078 4430 4429 1 
1079 4430 4674 3 
1080 4894 4652 3 
1081 4894 4893 1 
1082 4894 5618 3 
1083 5168 4894 3 
1084 5168 5167 1 
1085 5168 5618 3 
1086 4652 5168 3 
1087 4652 4651 1 
1088 5618 4652 3 
1089 5618 5617 1 
1090 4399 5617 2 
1091 4138 4137 1 
1092 5664 4138 3 
1093 5433 5434 1 
1094 5369 5433 2 
1095 5440 5940 3 
1096 5440 5439 1 
1097 5440 5914 3 
1098 5419 5939 2 
1099 5956 5444 3 
1100 5956 5955 1 
1101 5444 5660 3 
1102 5444 5443 1 
1103 5660 5956 3 
1104 5660 5659 1 
1105 5922 892 3 
1106 5922 5921 1 
1107 690 5922 3 
1108 690 689 1 
1109 690 892 3 
1110 164 5922 3 
1111 164 163 1 
1112 164 690 3 
1113 894 670 3 
1114 894 893 1 
1115 1178 894 3 
1116 1178 1177 1 
1117 670 1178 3 
1118 670 669 1 
1119 405 913 2 
1120 460 702 3 
1121 460 459 1 
1122 460 692 3 
1123 459 935 2 
1124 1197 2425 2 
1125 1197 1198 1 
1126 2425 2426 1 
1127 2432 1706 3 
1128 2432 2431 1 
1129 1948 2666 3 
1130 1947 1948 1 
1131 2688 2722 3 
1132 2688 2687 1 
1133 2722 2422 3 
1134 2722 2721 1 
1135 2422 2688 3 
1136 2422 2421 1 
1137 2194 2444 3 
1138 2194 2193 1 
1139 2194 3166 3 
1140 3395 3879 2 
1141 3956 4688 3 
1142 3956 3955 1 
1143 4429 4695 2 
1144 4167 4457 2 
1145 5672 5670 3 
1146 5672 5671 1 
1147 5670 5924 3 
1148 5670 5669 1 
1149 5924 5672 3 
1150 5924 5923 1 
1151 5183 5453 2 
1152 689 893 2 
1153 694 693 1 
1154 428 694 3 
1155 427 428 1 
1156 730 729 1 
1157 5994 730 3 
1158 5993 5994 1 
1159 1180 458 3 
1160 1180 1179 1 
1161 936 682 3 
1162 936 935 1 
1163 710 936 3 
1164 710 709 1 
1165 672 936 3 
1166 672 671 1 
1167 672 710 3 
1168 682 672 3 
1169 682 681 1 
1170 682 710 3 
1171 2426 1940 3 
1172 1454 1453 1 
1173 1666 1454 3 
1174 1706 1688 3 
1175 1706 1705 1 
1176 1688 2432 3 
1177 1688 1687 1 
1178 1687 1949 2 
1179 2443 2467 2 
1180 3402 2900 3 
1181 3674 3673 1 
1182 3172 3674 3 
1183 4220 4672 3 
1184 3459 3957 2 
1185 4672 4671 1 
1186 3460 3459 1 
1187 3976 3460 3 
1188 4219 4693 2 
1189 4219 4220 1 
1190 3430 3930 3 
1191 3430 3429 1 
1192 4166 3430 3 
1193 4166 4165 1 
1194 3930 4166 3 
1195 3930 3929 1 
1196 3697 3921 2 
1197 4458 4457 1 
1198 4444 4458 3 
1199 5195 5196 1 
1200 5195 5219 2 
1201 5458 5224 3 
1202 5224 5223 1 
1203 5220 4460 3 
1204 5220 5219 1 
1205 4460 5218 3 
1206 4460 4459 1 
1207 5457 5458 1 
1208 5218 5220 3 
1209 5218 5217 1 
1210 4432 4934 3 
1211 4697 5457 2 
1212 4469 4470 1 
1213 4469 4703 2 
1214 4186 5218 3 
1215 4186 4185 1 
1216 4186 4460 3 
1217 4186 5220 3 
1218 5923 5947 2 
1219 5470 5696 3 
1220 5470 5469 1 
1221 6222 5210 3 
1222 6222 6221 1 
1223 5454 6222 3 
1224 5454 5453 1 
1225 5210 5454 3 
1226 5210 5209 1 
1227 5230 5470 3 
1228 5230 5229 1 
1229 5230 6240 3 
1230 194 193 1 
1231 196 194 3 
1232 462 198 3 
1233 198 197 1 
1234 454 6192 3 
1235 454 453 1 
1236 6192 432 3 
1237 6192 6191 1 
1238 6197 6219 2 
1239 697 698 1 
1240 433 697 2 
1241 221 222 1 
1242 221 431 2 
1243 436 1180 3 
1244 436 435 1 
1245 457 6199 2 
1246 222 178 3 
1247 178 177 1 
1248 709 1461 2 
1249 1713 1983 2 
1250 1225 1421 2 
1251 1964 1720 3 
1252 1964 1963 1 
1253 1964 2206 3 
1254 1720 1719 1 
1255 1720 2206 3 
1256 1942 1964 3 
1257 1942 1941 1 
1258 1942 2206 3 
1259 2900 2899 1 
1260 2899 3673 2 
1261 3958 3946 3 
1262 3958 3957 1 
1263 2948 3958 3 
1264 2948 2947 1 
1265 2948 3450 3 
1266 2948 3946 3 
1267 3450 3958 3 
1268 3450 3449 1 
1269 3946 3450 3 
1270 3946 3945 1 
1271 3926 3968 3 
1272 3967 3977 2 
1273 3945 4671 2 
1274 3929 4667 2 
1275 3701 3975 2 
1276 3940 3706 3 
1277 3940 3939 1 
1278 3429 3693 2 
1279 3975 3976 1 
1280 3706 3724 3 
1281 3706 3705 1 
1282 3724 3940 3 
1283 3724 3723 1 
1284 3707 4443 2 
1285 4443 4444 1 
1286 4209 5451 2 
1287 5442 4210 3 
1288 5442 5441 1 
1289 4210 4698 3 
1290 4210 4209 1 
1291 4448 4210 3 
1292 4448 4447 1 
1293 4448 5442 3 
1294 4698 4448 3 
1295 4698 4697 1 
1296 4698 5442 3 
1297 5201 5202 1 
1298 5189 5201 2 
1299 4447 5217 2 
1300 4459 4707 2 
1301 4958 4434 3 
1302 4958 4957 1 
1303 4958 5476 3 
1304 5476 4434 3 
1305 5476 5475 1 
1306 5696 5230 3 
1307 5696 5695 1 
1308 5696 6240 3 
1309 6240 5470 3 
1310 6240 6239 1 
1311 465 6239 2 
1312 209 729 2 
1313 179 461 2 
1314 461 462 1 
1315 5486 5676 3 
1316 5486 5485 1 
1317 453 923 2 
1318 432 454 3 
1319 432 431 1 
1320 924 920 3 
1321 920 919 1 
1322 6220 6219 1 
1323 228 6220 3 
1324 200 698 3 
1325 200 716 3 
1326 200 924 3 
1327 698 924 3 
1328 698 920 3 
1329 716 920 3 
1330 716 6220 3 
1331 923 924 1 
1332 479 480 1 
1333 1462 1496 3 
1334 1462 1461 1 
1335 1422 1496 3 
1336 1422 1421 1 
1337 1422 1480 3 
1338 1422 1462 3 
1339 1480 1462 3 
1340 1480 1479 1 
1341 1496 1480 3 
1342 1496 1495 1 
1343 1714 6200 3 
1344 1714 1713 1 
1345 216 6200 3 
1346 216 215 1 
1347 216 1714 3 
1348 472 216 3 
1349 472 471 1 
1350 472 1714 3 
1351 6200 472 3 
1352 6200 6199 1 
1353 1213 1719 2 
1354 1486 2236 3 
1355 1486 1485 1 
1356 1486 2730 3 
1357 1486 1736 3 
1358 2501 2977 2 
1359 2977 2978 1 
1360 2445 2446 1 
1361 2445 3207 2 
1362 3968 3967 1 
1363 3225 3963 2 
1364 2946 2704 3 
1365 2946 2945 1 
1366 2946 3226 3 
1367 3226 2704 3 
1368 3226 3225 1 
1369 3226 3424 3 
1370 3424 2946 3 
1371 3424 3423 1 
1372 2704 3424 3 
1373 2704 2703 1 
1374 3702 3701 1 
1375 3422 3702 3 
1376 3466 3762 3 
1377 3466 3465 1 
1378 4464 3466 3 
1379 4464 4463 1 
1380 3762 4464 3 
1381 3762 3761 1 
1382 3761 5441 2 
1383 4474 4206 3 
1384 4474 4473 1 
1385 4474 4988 3 
1386 4206 4988 3 
1387 4206 4205 1 
1388 4988 4438 3 
1389 4988 4987 1 
1390 4438 4206 3 
1391 4438 4437 1 
1392 4438 4474 3 
1393 4981 5203 2 
1394 4508 4507 1 
1395 4252 4508 3 
1396 5693 5695 2 
1397 5685 5899 2 
1398 466 5464 3 
1399 466 465 1 
1400 706 180 3 
1401 706 705 1 
1402 180 5968 3 
1403 180 179 1 
1404 6164 5486 3 
1405 6164 6163 1 
1406 5676 6164 3 
1407 5676 5675 1 
1408 504 6238 3 
1409 504 503 1 
1410 480 464 3 
1411 227 228 1 
1412 227 993 2 
1413 699 1215 2 
1414 1992 2472 3 
1415 2472 2471 1 
1416 1474 1478 3 
1417 1478 1477 1 
1418 2730 2236 3 
1419 2730 2729 1 
1420 1991 1992 1 
1421 1477 1991 2 
1422 2189 2953 2 
1423 2953 2954 1 
1424 2737 2738 1 
1425 2737 3463 2 
1426 3473 3474 1 
1427 3473 4193 2 
1428 4194 4198 3 
1429 4194 4193 1 
1430 4194 4208 3 
1431 4198 3960 3 
1432 4198 4197 1 
1433 3465 3749 2 
1434 3933 3959 2 
1435 4479 4713 2 
1436 4714 4982 3 
1437 4714 4713 1 
1438 4992 4714 3 
1439 4992 4991 1 
1440 4982 4992 3 
1441 4982 4981 1 
1442 5464 232 3 
1443 5464 5463 1 
1444 231 5973 2 
1445 232 466 3 
1446 232 231 1 
1447 438 6238 3 
1448 438 437 1 
1449 438 504 3 
1450 438 6250 3 
1451 6250 504 3 
1452 6250 6249 1 
1453 6238 6250 3 
1454 6238 6237 1 
1455 494 6230 3 
1456 494 493 1 
1457 494 732 3 
1458 494 498 3 
1459 498 732 3 
1460 498 497 1 
1461 6230 498 3 
1462 6230 6229 1 
1463 732 6230 3 
1464 732 731 1 
1465 731 749 2 
1466 463 971 2 
1467 987 988 1 
1468 987 6229 2 
1469 971 972 1 
1470 1202 1490 3 
1471 1202 1201 1 
1472 958 1490 3 
1473 958 957 1 
1474 958 1202 3 
1475 1473 1474 1 
1476 1465 1466 1 
1477 1465 1473 2 
1478 2461 2462 1 
1479 1237 2471 2 
1480 2966 2710 3 
1481 2966 2965 1 
1482 2990 2966 3 
1483 2990 2989 1 
1484 2710 2990 3 
1485 2710 2709 1 
1486 2515 2747 2 
1487 3980 3979 1 
1488 3474 3980 3 
1489 3477 3721 2 
1490 4259 4721 2 
1491 4283 4975 2 
1492 3751 4015 2 
1493 5493 5494 1 
1494 4990 5222 3 
1495 4990 4989 1 
1496 13 229 2 
1497 5974 226 3 
1498 5974 5973 1 
1499 242 5974 3 
1500 242 226 3 
1501 242 241 1 
1502 236 242 3 
1503 236 5974 3 
1504 236 235 1 
1505 235 5479 2 
1506 5720 192 3 
1507 5720 5719 1 
1508 192 8 3 
1509 192 191 1 
1510 264 192 3 
1511 264 263 1 
1512 264 5720 3 
1513 226 236 3 
1514 226 225 1 
1515 8 264 3 
1516 8 7 1 
1517 8 5720 3 
1518 225 6025 2 
1519 6026 5982 3 
1520 6026 6025 1 
1521 508 254 3 
1522 508 507 1 
1523 508 6026 3 
1524 253 6235 2 
1525 5 733 2 
1526 11 6051 2 
1527 5730 5729 1 
1528 475 476 1 
1529 6051 6052 1 
1530 1223 1257 2 
1531 1224 1730 3 
1532 1224 1223 1 
1533 736 1224 3 
1534 736 735 1 
1535 1730 736 3 
1536 1730 1729 1 
1537 3000 2736 3 
1538 3000 2999 1 
1539 2736 2228 3 
1540 2736 2735 1 
1541 2228 3000 3 
1542 2228 2227 1 
1543 3268 2768 3 
1544 3268 3267 1 
1545 2516 4004 3 
1546 2516 2515 1 
1547 4004 3468 3 
1548 4004 4003 1 
1549 3468 2516 3 
1550 3468 3467 1 
1551 3768 3764 3 
1552 3768 3767 1 
1553 2748 2210 3 
1554 2748 2747 1 
1555 3467 3735 2 
1556 3764 3778 3 
1557 3764 3763 1 
1558 3735 3736 1 
1559 4284 5222 3 
1560 4284 4283 1 
1561 4284 4722 3 
1562 4284 4990 3 
1563 4722 4990 3 
1564 4722 4721 1 
1565 5222 4722 3 
1566 5222 5221 1 
1567 5494 5750 3 
1568 5750 5749 1 
1569 489 519 2 
1570 5732 266 3 
1571 266 265 1 
1572 24 474 3 
1573 24 23 1 
1574 24 6018 3 
1575 24 6014 3 
1576 247 5753 2 
1577 6014 6018 3 
1578 6014 6013 1 
1579 6018 474 3 
1580 6018 6017 1 
1581 474 6014 3 
1582 474 473 1 
1583 473 525 2 
1584 33 501 2 
1585 1012 782 3 
1586 1012 1011 1 
1587 1012 1030 3 
1588 1012 1276 3 
1589 1276 1030 3 
1590 1276 1275 1 
1591 501 502 1 
1592 782 1276 3 
1593 782 781 1 
1594 1030 782 3 
1595 1030 1029 1 
1596 1260 722 3 
1597 1260 1259 1 
1598 722 1510 3 
1599 722 721 1 
1600 269 270 1 
1601 1239 1240 1 
1602 1510 1260 3 
1603 1510 1509 1 
1604 485 1239 2 
1605 515 516 1 
1606 515 1263 2 
1607 233 269 2 
1608 1259 1269 2 
1609 1738 486 3 
1610 1738 1737 1 
1611 1021 1022 1 
1612 1242 1738 3 
1613 1242 1241 1 
1614 535 1021 2 
1615 1245 1246 1 
1616 781 1523 2 
1617 536 1002 3 
1618 536 535 1 
1619 536 1758 3 
1620 1020 536 3 
1621 1020 1019 1 
1622 1002 1020 3 
1623 1002 1001 1 
1624 1002 1758 3 
1625 741 742 1 
1626 741 973 2 
1627 742 1236 3 
1628 1236 1235 1 
1629 1723 2253 2 
1630 2253 2254 1 
1631 2009 2505 2 
1632 1743 1744 1 
1633 1511 1512 1 
1634 1511 1743 2 
1635 1744 2024 3 
1636 1752 1751 1 
1637 2481 2482 1 
1638 2481 3017 2 
1639 3017 3018 1 
1640 2742 1752 3 
1641 2279 2509 2 
1642 2280 2279 1 
1643 2280 2492 3 
1644 2280 2786 3 
1645 2254 2280 3 
1646 2254 2786 3 
1647 2506 2505 1 
1648 2270 2010 3 
1649 2270 2269 1 
1650 2017 2513 2 
1651 2539 3739 2 
1652 2778 3006 3 
1653 2778 2777 1 
1654 3006 2992 3 
1655 3006 3005 1 
1656 2732 1504 3 
1657 2732 2731 1 
1658 2732 2762 3 
1659 2762 1504 3 
1660 2762 2761 1 
1661 3002 2778 3 
1662 3002 3001 1 
1663 3002 3006 3 
1664 2519 2520 1 
1665 2519 3019 2 
1666 2983 2997 2 
1667 2983 2984 1 
1668 3985 4257 2 
1669 2535 3001 2 
1670 2242 2224 3 
1671 2242 2241 1 
1672 2992 2778 3 
1673 2992 2991 1 
1674 2992 3002 3 
1675 2261 2771 2 
1676 4257 4258 1 
1677 2984 4010 3 
1678 3261 3545 2 
1679 4010 4009 1 
1680 3522 3521 1 
1681 3277 3278 1 
1682 3029 4023 2 
1683 3287 3521 2 
1684 4286 4514 3 
1685 4024 4023 1 
1686 3270 4024 3 
1687 4017 4285 2 
1688 3290 2784 3 
1689 3269 3270 1 
1690 4285 4286 1 
1691 2783 3269 2 
1692 2784 2783 1 
1693 4018 3506 3 
1694 4018 4017 1 
1695 4018 4726 3 
1696 4504 4018 3 
1697 4504 4503 1 
1698 4504 4726 3 
1699 4726 3506 3 
1700 4726 4725 1 
1701 3517 3518 1 
1702 3517 3989 2 
1703 3506 4504 3 
1704 3506 3505 1 
1705 3505 3765 2 
1706 4237 4238 1 
1707 3543 3811 2 
1708 4238 4228 3 
1709 4227 4239 2 
1710 4270 4272 3 
1711 4270 4269 1 
1712 4270 4278 3 
1713 4266 4272 3 
1714 4266 4265 1 
1715 4266 4270 3 
1716 4278 4266 3 
1717 4278 4277 1 
1718 3744 4744 3 
1719 3744 3743 1 
1720 3744 4290 3 
1721 4272 4278 3 
1722 4272 4271 1 
1723 3766 3744 3 
1724 3766 3765 1 
1725 3766 4290 3 
1726 4744 3766 3 
1727 4744 4743 1 
1728 4290 4744 3 
1729 4290 4289 1 
1730 4289 4497 2 
1731 5249 5250 1 
1732 5249 5481 2 
1733 4250 4750 3 
1734 4250 4249 1 
1735 4750 5482 3 
1736 4750 4749 1 
1737 5482 4250 3 
1738 5482 5481 1 
1739 4268 4498 3 
1740 4268 4267 1 
1741 4268 4794 3 
1742 4794 4728 3 
1743 4794 4793 1 
1744 4498 4728 3 
1745 4498 4497 1 
1746 4498 4794 3 
1747 4728 4268 3 
1748 4728 4727 1 
1749 4484 4720 3 
1750 4484 4483 1 
1751 4484 4732 3 
1752 5234 4484 3 
1753 5234 5233 1 
1754 4720 5234 3 
1755 4720 4719 1 