ITEM: TIMESTEP
100320
ITEM: NUMBER OF ENTRIES
8209
ITEM: BOX BOUNDS pp pp ff
0.0000000000000000e+00 7.2168784000000002e+01
0.0000000000000000e+00 7.2168784000000002e+01
0.0000000000000000e+00 1.2000000000000000e+01
ITEM: ENTRIES index c_1[1] c_1[2] c_1[3]
1 248 12 3 
2 248 247 1 
3 12 34 3 
4 12 11 1 
5 12 6022 3 
6 6022 248 3 
7 6022 6021 1 
8 34 248 3 
9 34 33 1 
10 34 6022 3 
11 33 501 2 
12 5731 5732 1 
13 6002 244 3 
14 244 243 1 
15 2276 2018 3 
16 2276 2275 1 
17 2754 2276 3 
18 2754 2753 1 
19 2508 2276 3 
20 2508 2507 1 
21 2508 2754 3 
22 2018 2508 3 
23 2018 2017 1 
24 2018 2754 3 
25 2768 2792 3 
26 2768 2767 1 
27 1503 2761 2 
28 3268 2768 3 
29 3268 3267 1 
30 2732 1504 3 
31 2732 2731 1 
32 2732 2762 3 
33 2762 1504 3 
34 2762 2761 1 
35 1504 2252 3 
36 1504 1503 1 
37 2252 2732 3 
38 2252 2251 1 
39 2252 2762 3 
40 2223 3447 2 
41 2511 2512 1 
42 2511 2767 2 
43 2262 3262 3 
44 2262 2261 1 
45 2262 2518 3 
46 3262 3788 3 
47 3262 3261 1 
48 3788 2262 3 
49 3788 3787 1 
50 2518 3262 3 
51 2518 2517 1 
52 2518 3788 3 
53 2251 2489 2 
54 2991 3277 2 
55 3277 3278 1 
56 3492 3254 3 
57 530 208 3 
58 208 207 1 
59 6001 6002 1 
60 6001 6009 2 
61 2741 2742 1 
62 2011 2741 2 
63 3018 2760 3 
64 2760 2759 1 
65 2486 2485 1 
66 2486 2774 3 
67 2002 2486 3 
68 2002 2774 3 
69 2753 2773 2 
70 2773 2774 1 
71 1519 2275 2 
72 3022 3021 1 
73 2777 3787 2 
74 3769 4503 2 
75 3770 3769 1 
76 4524 4523 1 
77 3540 4524 3 
78 4019 4020 1 
79 4493 4735 2 
80 4735 4736 1 
81 5040 5582 3 
82 5040 5039 1 
83 4528 5582 3 
84 4528 4527 1 
85 4528 5040 3 
86 4528 5314 3 
87 5259 5737 2 
88 529 530 1 
89 5003 5515 2 
90 5804 292 3 
91 292 291 1 
92 22 512 3 
93 22 274 3 
94 22 6242 3 
95 6010 6009 1 
96 6010 5766 3 
97 5766 5765 1 
98 5766 6242 3 
99 512 511 1 
100 512 274 3 
101 512 5766 3 
102 19 39 2 
103 19 20 1 
104 6242 6010 3 
105 258 38 3 
106 786 296 3 
107 786 785 1 
108 786 790 3 
109 1016 550 3 
110 5803 5804 1 
111 546 792 3 
112 546 545 1 
113 546 1068 3 
114 296 518 3 
115 296 295 1 
116 550 549 1 
117 20 1330 3 
118 554 546 3 
119 554 553 1 
120 554 1068 3 
121 1032 1038 3 
122 1032 1031 1 
123 1038 772 3 
124 1038 1037 1 
125 772 1032 3 
126 772 771 1 
127 1267 1549 2 
128 2308 1290 3 
129 2308 2307 1 
130 1281 1541 2 
131 1542 1792 3 
132 1542 1541 1 
133 1542 2308 3 
134 1550 1530 3 
135 1550 1549 1 
136 1550 2056 3 
137 1290 1792 3 
138 1290 1289 1 
139 1290 1542 3 
140 1530 1262 3 
141 1530 1529 1 
142 1530 2056 3 
143 2759 3251 2 
144 2313 2775 2 
145 2314 1520 3 
146 2314 2313 1 
147 2314 2818 3 
148 1520 2296 3 
149 1520 1519 1 
150 1520 2818 3 
151 2001 2002 1 
152 2001 2485 2 
153 2296 2314 3 
154 2296 2295 1 
155 2282 1784 3 
156 2282 2281 1 
157 3252 2282 3 
158 3252 3251 1 
159 2272 2271 1 
160 1784 3252 3 
161 1784 1783 1 
162 2527 2528 1 
163 2281 2529 2 
164 2037 2527 2 
165 3780 3779 1 
166 2528 3780 3 
167 3803 3804 1 
168 3803 4051 2 
169 4011 4012 1 
170 3312 3311 1 
171 3312 3804 3 
172 4012 3770 3 
173 4523 5035 2 
174 3992 3502 3 
175 3502 3501 1 
176 3501 3539 2 
177 4281 4787 2 
178 3539 3540 1 
179 5039 5535 2 
180 4804 5284 3 
181 4804 4803 1 
182 5296 4804 3 
183 5296 5295 1 
184 5296 5760 3 
185 5284 5296 3 
186 5284 5283 1 
187 5284 5760 3 
188 5260 5038 3 
189 5260 5259 1 
190 4766 5762 3 
191 4766 4765 1 
192 5004 4766 3 
193 5004 5003 1 
194 5762 5004 3 
195 5762 5761 1 
196 28 4766 3 
197 28 27 1 
198 28 5004 3 
199 28 5762 3 
200 537 5779 2 
201 798 314 3 
202 798 797 1 
203 557 789 2 
204 72 314 3 
205 72 71 1 
206 72 798 3 
207 314 70 3 
208 314 313 1 
209 1278 1268 3 
210 1278 1277 1 
211 1278 1760 3 
212 1278 1536 3 
213 1536 1268 3 
214 1536 1535 1 
215 1760 1536 3 
216 1760 1759 1 
217 1268 1760 3 
218 1268 1267 1 
219 1333 2307 2 
220 1792 2308 3 
221 1792 1791 1 
222 1289 2283 2 
223 1292 2284 3 
224 1292 1291 1 
225 2284 1778 3 
226 2284 2283 1 
227 1796 2564 3 
228 1796 1795 1 
229 1796 2776 3 
230 1796 2044 3 
231 1778 1292 3 
232 1778 1777 1 
233 2776 2044 3 
234 2776 2775 1 
235 2564 2776 3 
236 2564 2563 1 
237 2044 2564 3 
238 2044 2043 1 
239 2546 2272 3 
240 1783 3035 2 
241 2552 3784 3 
242 3031 3309 2 
243 4801 4802 1 
244 3306 3558 3 
245 3306 3305 1 
246 3306 3574 3 
247 3558 4066 3 
248 3558 3557 1 
249 3558 3574 3 
250 3574 4066 3 
251 3574 3573 1 
252 5760 4804 3 
253 5760 5759 1 
254 6048 5262 3 
255 6048 6047 1 
256 5538 6048 3 
257 5538 5537 1 
258 5262 5538 3 
259 5262 5261 1 
260 5261 5987 2 
261 6050 5988 3 
262 6050 6049 1 
263 5034 6050 3 
264 5034 5033 1 
265 5988 5034 3 
266 5988 5987 1 
267 538 6044 3 
268 538 537 1 
269 6044 322 3 
270 6044 6043 1 
271 5821 5822 1 
272 784 538 3 
273 784 783 1 
274 784 6044 3 
275 313 559 2 
276 69 589 2 
277 70 798 3 
278 70 69 1 
279 70 72 3 
280 71 799 2 
281 1301 1569 2 
282 289 1759 2 
283 1539 1791 2 
284 1540 1572 3 
285 1540 1539 1 
286 1096 1095 1 
287 2316 1096 3 
288 1824 1800 3 
289 1824 1823 1 
290 2332 1334 3 
291 2332 2331 1 
292 1795 2053 2 
293 3784 3783 1 
294 3291 3299 2 
295 3792 3292 3 
296 3792 3791 1 
297 3292 3310 3 
298 3292 3291 1 
299 3310 3792 3 
300 3310 3309 1 
301 3332 4588 3 
302 3332 3331 1 
303 4086 3332 3 
304 4086 4085 1 
305 4086 4588 3 
306 4588 3776 3 
307 4588 4587 1 
308 3776 3332 3 
309 3776 3775 1 
310 3776 4086 3 
311 3062 3582 3 
312 3062 3061 1 
313 3062 4312 3 
314 3062 3322 3 
315 3322 3582 3 
316 3322 3321 1 
317 3331 3567 2 
318 4567 5331 2 
319 4567 4568 1 
320 5318 5317 1 
321 5544 5318 3 
322 5551 6049 2 
323 5043 5317 2 
324 5805 6043 2 
325 322 538 3 
326 322 321 1 
327 322 784 3 
328 75 6093 2 
329 329 330 1 
330 329 561 2 
331 836 1332 3 
332 836 835 1 
333 1302 1540 3 
334 1302 1301 1 
335 1064 1572 3 
336 1064 1063 1 
337 1064 1540 3 
338 1064 1302 3 
339 2022 1824 3 
340 2022 2021 1 
341 2022 2292 3 
342 1572 1302 3 
343 1572 1571 1 
344 1800 2292 3 
345 1800 1799 1 
346 1800 2022 3 
347 1799 2069 2 
348 2291 2353 2 
349 2353 2354 1 
350 1826 2070 3 
351 3602 3832 3 
352 3602 3601 1 
353 3840 3602 3 
354 3840 3839 1 
355 3832 3840 3 
356 3832 3831 1 
357 3563 3831 2 
358 2821 3317 2 
359 3564 3298 3 
360 3564 3563 1 
361 3814 3564 3 
362 3814 3813 1 
363 3298 3068 3 
364 3298 3297 1 
365 3298 3814 3 
366 3323 3775 2 
367 3061 4311 2 
368 2787 3589 2 
369 2788 4076 3 
370 2788 2787 1 
371 4291 4587 2 
372 4292 3568 3 
373 4292 4291 1 
374 4292 4300 3 
375 3568 4058 3 
376 3568 3567 1 
377 3568 4300 3 
378 4058 4292 3 
379 4058 4057 1 
380 5819 6083 2 
381 783 5777 2 
382 5794 5568 3 
383 5794 5793 1 
384 5794 5808 3 
385 5568 5560 3 
386 5568 5567 1 
387 5808 5568 3 
388 5808 5807 1 
389 5560 5808 3 
390 5560 5559 1 
391 5560 5794 3 
392 5559 6053 2 
393 337 355 2 
394 82 564 3 
395 82 840 3 
396 564 563 1 
397 564 840 3 
398 840 839 1 
399 581 1065 2 
400 1074 828 3 
401 1074 1073 1 
402 828 1832 3 
403 828 827 1 
404 1832 1074 3 
405 1832 1831 1 
406 844 1560 3 
407 844 843 1 
408 1560 1078 3 
409 1560 1559 1 
410 1078 844 3 
411 1078 1077 1 
412 1790 2058 3 
413 1790 1789 1 
414 1790 2354 3 
415 2046 2312 3 
416 2046 2582 3 
417 2354 2582 3 
418 2354 3038 3 
419 3038 3037 1 
420 2582 2824 3 
421 2070 2069 1 
422 2070 3352 3 
423 2824 3038 3 
424 2312 2311 1 
425 2058 2306 3 
426 2058 2057 1 
427 2058 3352 3 
428 2306 1790 3 
429 2306 2305 1 
430 2306 3352 3 
431 2823 2824 1 
432 2071 2311 2 
433 1825 1845 2 
434 1825 1826 1 
435 1845 1846 1 
436 2072 2071 1 
437 2338 2072 3 
438 1846 2580 3 
439 2580 2579 1 
440 3050 3308 3 
441 3308 3307 1 
442 2330 2594 3 
443 2330 2329 1 
444 2594 3056 3 
445 2594 2593 1 
446 3318 3066 3 
447 3318 3317 1 
448 3318 3344 3 
449 4076 3064 3 
450 4076 4075 1 
451 3847 3829 2 
452 3794 3318 3 
453 3794 3793 1 
454 3344 3794 3 
455 3344 3343 1 
456 3066 3794 3 
457 3066 3065 1 
458 3066 3344 3 
459 3848 3830 3 
460 3848 3847 1 
461 3830 3324 3 
462 3830 3829 1 
463 3324 3848 3 
464 3324 3323 1 
465 3596 3584 3 
466 3064 2788 3 
467 3064 3063 1 
468 3584 3583 1 
469 3343 3353 2 
470 4091 4092 1 
471 4091 4109 2 
472 4300 4058 3 
473 4300 4299 1 
474 3835 4057 2 
475 3822 4572 3 
476 3822 3821 1 
477 3822 4610 3 
478 3850 3822 3 
479 3850 3849 1 
480 3850 4610 3 
481 4610 4572 3 
482 4610 4609 1 
483 4572 3850 3 
484 4572 4571 1 
485 87 88 1 
486 87 4299 2 
487 4321 4351 2 
488 5301 6087 2 
489 5816 74 3 
490 5816 5815 1 
491 6084 5816 3 
492 6084 6083 1 
493 74 6084 3 
494 74 73 1 
495 5610 74 3 
496 5610 5609 1 
497 5610 5816 3 
498 5610 6084 3 
499 5807 5839 2 
500 345 575 2 
501 81 82 1 
502 81 563 2 
503 839 1337 2 
504 595 1107 2 
505 1637 1638 1 
506 1101 1637 2 
507 582 338 3 
508 582 581 1 
509 572 306 3 
510 572 571 1 
511 572 582 3 
512 306 338 3 
513 306 305 1 
514 306 582 3 
515 338 572 3 
516 338 337 1 
517 571 1559 2 
518 847 848 1 
519 847 2077 2 
520 2320 1600 3 
521 2320 2368 3 
522 1599 2831 2 
523 1600 1599 1 
524 1600 2064 3 
525 1600 2368 3 
526 2045 2046 1 
527 2045 3043 2 
528 2337 2338 1 
529 2337 2827 2 
530 3049 3050 1 
531 3049 3349 2 
532 3338 2834 3 
533 3338 3337 1 
534 3354 3338 3 
535 3354 3353 1 
536 2834 3354 3 
537 2834 2833 1 
538 3583 3599 2 
539 3833 4571 2 
540 3833 3834 1 
541 4824 4886 3 
542 4886 4885 1 
543 4340 4604 3 
544 4340 4339 1 
545 4604 5346 3 
546 4604 4603 1 
547 6106 98 3 
548 6106 6105 1 
549 98 5620 3 
550 98 97 1 
551 1148 1147 1 
552 653 1147 2 
553 116 115 1 
554 1338 1114 3 
555 1338 1337 1 
556 1114 812 3 
557 1114 1113 1 
558 1114 1634 3 
559 1634 1338 3 
560 1634 1633 1 
561 812 1338 3 
562 812 811 1 
563 812 1634 3 
564 1595 2099 2 
565 2099 2100 1 
566 1081 1082 1 
567 1081 1833 2 
568 1335 1336 1 
569 1335 1809 2 
570 817 2319 2 
571 2063 2064 1 
572 2319 2320 1 
573 2064 2368 3 
574 2064 2120 3 
575 1098 2120 3 
576 1098 1097 1 
577 818 1098 3 
578 818 817 1 
579 2120 818 3 
580 2120 2119 1 
581 2090 2074 3 
582 2090 2089 1 
583 2074 1810 3 
584 2074 2073 1 
585 1812 1810 3 
586 1812 1811 1 
587 1812 2074 3 
588 1812 2090 3 
589 1810 2090 3 
590 1810 1809 1 
591 1835 2115 2 
592 2601 2609 2 
593 3604 3044 3 
594 3604 3603 1 
595 2095 2096 1 
596 2095 2591 2 
597 2333 2849 2 
598 2828 3604 3 
599 2828 2827 1 
600 2096 2366 3 
601 2366 2365 1 
602 2806 2568 3 
603 2568 2567 1 
604 2365 2595 2 
605 2363 2861 2 
606 2595 2596 1 
607 2864 2894 3 
608 2864 2863 1 
609 2894 2342 3 
610 2894 2893 1 
611 2364 2864 3 
612 2364 2363 1 
613 2364 2894 3 
614 2342 2864 3 
615 2342 2341 1 
616 2342 2364 3 
617 3091 3335 2 
618 3106 2584 3 
619 3106 3105 1 
620 3106 3112 3 
621 3092 3606 3 
622 3092 3091 1 
623 3864 3092 3 
624 3864 3863 1 
625 3360 3106 3 
626 3360 3359 1 
627 3606 3864 3 
628 3606 3605 1 
629 2584 3360 3 
630 2584 2583 1 
631 3112 2584 3 
632 3112 3111 1 
633 3112 3360 3 
634 4822 4346 3 
635 4822 4821 1 
636 4346 4342 3 
637 4346 4345 1 
638 4122 4822 3 
639 4122 4346 3 
640 4122 4121 1 
641 4342 4122 3 
642 4342 4822 3 
643 4342 4341 1 
644 4363 4364 1 
645 4332 4100 3 
646 4332 4331 1 
647 4100 4856 3 
648 4100 4099 1 
649 4324 4100 3 
650 4324 4323 1 
651 4324 4332 3 
652 4324 4856 3 
653 4856 4332 3 
654 4856 4855 1 
655 4087 4093 2 
656 5346 4340 3 
657 5346 5345 1 
658 5092 5376 3 
659 5092 5091 1 
660 5092 5106 3 
661 4580 5092 3 
662 4580 4579 1 
663 5106 4580 3 
664 5106 5105 1 
665 5106 5376 3 
666 5376 4580 3 
667 5376 5375 1 
668 5079 5345 2 
669 4596 4595 1 
670 4600 4596 3 
671 90 116 3 
672 615 1431 2 
673 654 864 3 
674 654 653 1 
675 343 831 2 
676 616 654 3 
677 616 615 1 
678 1394 1870 3 
679 1394 1393 1 
680 1870 1852 3 
681 1870 1869 1 
682 1852 1394 3 
683 1852 1851 1 
684 1850 2566 3 
685 1601 1602 1 
686 2566 2565 1 
687 1097 2565 2 
688 1849 1850 1 
689 1630 1836 3 
690 1630 1629 1 
691 1630 2602 3 
692 1589 1849 2 
693 1836 1606 3 
694 1836 1835 1 
695 1836 2602 3 
696 1811 2623 2 
697 1606 1630 3 
698 1606 1605 1 
699 2602 1606 3 
700 2602 2601 1 
701 1618 2128 3 
702 1618 1617 1 
703 1618 2092 3 
704 1618 2136 3 
705 2825 3339 2 
706 2624 2344 3 
707 2624 2623 1 
708 2608 2624 3 
709 2608 2607 1 
710 2608 2850 3 
711 2344 2850 3 
712 2344 2343 1 
713 2344 2608 3 
714 2826 2862 3 
715 2826 2825 1 
716 2850 2624 3 
717 2850 2849 1 
718 3084 2826 3 
719 3084 3083 1 
720 2862 3084 3 
721 2862 2861 1 
722 3100 2854 3 
723 2815 2816 1 
724 2854 2853 1 
725 2873 3643 2 
726 2596 1848 3 
727 1848 1847 1 
728 2358 2870 3 
729 2870 2869 1 
730 3593 3863 2 
731 4620 3870 3 
732 4620 4619 1 
733 3870 4386 3 
734 3870 3869 1 
735 3861 3862 1 
736 3861 4345 2 
737 3852 3898 3 
738 3852 3851 1 
739 3624 3623 1 
740 4369 4869 2 
741 6115 6116 1 
742 5843 6115 2 
743 1356 1106 3 
744 1356 1355 1 
745 877 5875 2 
746 1106 1432 3 
747 1106 1105 1 
748 878 6086 3 
749 878 877 1 
750 1432 1356 3 
751 1432 1431 1 
752 586 832 3 
753 586 585 1 
754 5638 586 3 
755 5638 5637 1 
756 2376 1862 3 
757 2376 2375 1 
758 1590 2376 3 
759 1590 1589 1 
760 1605 1869 2 
761 1617 2855 2 
762 1862 1590 3 
763 1862 1861 1 
764 1131 1139 2 
765 2616 2856 3 
766 2616 2615 1 
767 1861 2113 2 
768 2372 1132 3 
769 2372 2371 1 
770 1132 3134 3 
771 1132 1131 1 
772 3134 2372 3 
773 3134 3133 1 
774 2604 2384 3 
775 2604 2603 1 
776 2604 3104 3 
777 2384 2634 3 
778 2384 2383 1 
779 2384 3104 3 
780 2634 2604 3 
781 2634 2633 1 
782 3104 2634 3 
783 3104 3103 1 
784 1847 2615 2 
785 2390 2389 1 
786 2611 3083 2 
787 2611 2612 1 
788 2904 2390 3 
789 2829 3103 2 
790 3180 3179 1 
791 3380 3644 3 
792 3380 3379 1 
793 2612 3180 3 
794 3844 3380 3 
795 3844 3843 1 
796 3398 3896 3 
797 3398 3397 1 
798 3398 3868 3 
799 3379 3895 2 
800 2877 3897 2 
801 3143 3641 2 
802 3625 3626 1 
803 3625 3851 2 
804 3862 3624 3 
805 3869 4385 2 
806 2865 3901 2 
807 4870 4370 3 
808 4870 4869 1 
809 3626 4370 3 
810 3626 4870 3 
811 3626 4104 3 
812 4370 4104 3 
813 4370 4369 1 
814 4104 4870 3 
815 4104 4103 1 
816 4383 4889 2 
817 5626 5625 1 
818 4384 4383 1 
819 6116 5626 3 
820 5842 5841 1 
821 6120 5842 3 
822 5876 374 3 
823 5876 5875 1 
824 166 5876 3 
825 166 165 1 
826 166 380 3 
827 5597 5598 1 
828 5597 5637 2 
829 633 634 1 
830 413 1429 2 
831 413 414 1 
832 414 1376 3 
833 1376 1375 1 
834 1358 1874 3 
835 1358 1357 1 
836 1358 1918 3 
837 1358 1900 3 
838 1874 1900 3 
839 1874 1873 1 
840 1918 1874 3 
841 1918 1917 1 
842 1900 1918 3 
843 1900 1899 1 
844 2374 2174 3 
845 2374 2373 1 
846 1882 2174 3 
847 1882 1881 1 
848 1882 2374 3 
849 1882 2152 3 
850 1889 2389 2 
851 3668 2676 3 
852 3668 3667 1 
853 3636 3146 3 
854 3636 3635 1 
855 3146 3130 3 
856 3146 3145 1 
857 3130 3636 3 
858 3130 3129 1 
859 3370 3369 1 
860 3136 2878 3 
861 2878 2877 1 
862 3618 3642 3 
863 3618 3617 1 
864 3618 3924 3 
865 3924 3642 3 
866 3924 3923 1 
867 3642 3902 3 
868 3642 3641 1 
869 3902 3618 3 
870 3902 3901 1 
871 3902 3924 3 
872 4851 4881 2 
873 4397 5355 2 
874 4882 5114 3 
875 4882 4881 1 
876 4864 4882 3 
877 4864 4863 1 
878 4864 5114 3 
879 4638 4882 3 
880 4638 4637 1 
881 4638 4864 3 
882 5114 4638 3 
883 5114 5113 1 
884 5424 5894 3 
885 5424 5423 1 
886 4406 4932 3 
887 4406 4405 1 
888 5410 4406 3 
889 5410 5409 1 
890 4932 5410 3 
891 4932 4931 1 
892 4156 5362 3 
893 4156 4155 1 
894 5362 5878 3 
895 5362 5361 1 
896 5878 4156 3 
897 5878 5877 1 
898 5127 5361 2 
899 6124 160 3 
900 6124 6123 1 
901 6154 6124 3 
902 6154 6153 1 
903 150 6124 3 
904 150 149 1 
905 150 160 3 
906 150 6154 3 
907 401 402 1 
908 181 401 2 
909 1162 1898 3 
910 1162 1161 1 
911 1137 1138 1 
912 1137 1375 2 
913 1898 1624 3 
914 1898 1897 1 
915 1624 1162 3 
916 1624 1623 1 
917 1624 1682 3 
918 1682 1162 3 
919 1682 1681 1 
920 1682 1898 3 
921 634 1614 3 
922 1907 2373 2 
923 1385 1881 2 
924 2640 2408 3 
925 2640 2639 1 
926 2408 2406 3 
927 2408 2407 1 
928 2406 2640 3 
929 2406 2405 1 
930 1854 2640 3 
931 1854 1853 1 
932 1854 2406 3 
933 1854 2408 3 
934 1895 2401 2 
935 3115 3129 2 
936 3162 3370 3 
937 3372 3910 3 
938 3910 3909 1 
939 3135 3909 2 
940 3135 3136 1 
941 3371 3372 1 
942 3622 3621 1 
943 4924 3622 3 
944 3621 4421 2 
945 4658 4160 3 
946 4160 4159 1 
947 4919 5423 2 
948 5144 5143 1 
949 5154 5144 3 
950 5409 5427 2 
951 4877 4931 2 
952 5152 5151 1 
953 929 5877 2 
954 5906 930 3 
955 5906 5905 1 
956 5906 5908 3 
957 144 6148 3 
958 144 143 1 
959 6148 416 3 
960 6148 6147 1 
961 642 144 3 
962 642 641 1 
963 642 6148 3 
964 416 144 3 
965 416 415 1 
966 416 642 3 
967 410 186 3 
968 410 409 1 
969 409 6187 2 
970 1692 410 3 
971 1692 1691 1 
972 392 410 3 
973 392 391 1 
974 392 1692 3 
975 186 1692 3 
976 186 185 1 
977 186 392 3 
978 1151 6159 2 
979 953 1623 2 
980 2625 2647 2 
981 2928 2186 3 
982 2888 2872 3 
983 2888 2887 1 
984 2872 2402 3 
985 2872 2871 1 
986 2402 2888 3 
987 2402 2401 1 
988 2871 2907 2 
989 2656 2934 3 
990 2656 2655 1 
991 2656 3680 3 
992 3680 2934 3 
993 3680 3679 1 
994 3174 2656 3 
995 3174 3173 1 
996 3174 3680 3 
997 2934 3174 3 
998 2934 2933 1 
999 3163 3173 2 
1000 4142 2914 3 
1001 4142 4141 1 
1002 3900 4142 3 
1003 3900 3899 1 
1004 4657 4658 1 
1005 4657 5167 2 
1006 4675 4887 2 
1007 4418 5402 3 
1008 4418 4417 1 
1009 5428 4418 3 
1010 5428 5427 1 
1011 4920 4418 3 
1012 4920 4919 1 
1013 4920 5428 3 
1014 4920 5402 3 
1015 5402 5428 3 
1016 5402 5401 1 
1017 4893 5153 2 
1018 5153 5154 1 
1019 5434 5194 3 
1020 4888 4878 3 
1021 4888 4887 1 
1022 4878 4400 3 
1023 4878 4877 1 
1024 4400 4888 3 
1025 4400 4399 1 
1026 5194 5193 1 
1027 5680 5152 3 
1028 5392 6168 3 
1029 5392 5391 1 
1030 122 5392 3 
1031 122 121 1 
1032 419 5905 2 
1033 670 1178 3 
1034 670 669 1 
1035 894 670 3 
1036 894 893 1 
1037 172 914 3 
1038 172 171 1 
1039 172 430 3 
1040 172 674 3 
1041 430 914 3 
1042 430 429 1 
1043 674 430 3 
1044 674 673 1 
1045 425 447 2 
1046 701 1173 2 
1047 934 422 3 
1048 934 933 1 
1049 934 1152 3 
1050 1152 656 3 
1051 1152 1151 1 
1052 656 422 3 
1053 656 655 1 
1054 656 934 3 
1055 422 1152 3 
1056 422 421 1 
1057 1938 2662 3 
1058 1938 1937 1 
1059 2648 1938 3 
1060 2648 2647 1 
1061 2662 2648 3 
1062 2662 2661 1 
1063 1948 2666 3 
1064 2186 2185 1 
1065 2666 2665 1 
1066 2673 3165 2 
1067 2933 3649 2 
1068 3906 3164 3 
1069 3906 3905 1 
1070 3388 3906 3 
1071 3388 3387 1 
1072 3388 3666 3 
1073 3164 3666 3 
1074 3164 3163 1 
1075 3164 3388 3 
1076 3666 3906 3 
1077 3666 3665 1 
1078 3193 4171 2 
1079 4428 4674 3 
1080 4428 4427 1 
1081 4428 4430 3 
1082 4430 4168 3 
1083 4430 4429 1 
1084 4430 4674 3 
1085 4168 4428 3 
1086 4168 4167 1 
1087 4674 4168 3 
1088 4674 4673 1 
1089 4399 5617 2 
1090 5664 4138 3 
1091 5440 5940 3 
1092 5440 5439 1 
1093 5440 5914 3 
1094 5162 5940 3 
1095 5162 5161 1 
1096 5162 5440 3 
1097 5940 5914 3 
1098 5940 5939 1 
1099 4138 4137 1 
1100 5914 5162 3 
1101 5914 5913 1 
1102 6183 6184 1 
1103 6184 5918 3 
1104 5658 420 3 
1105 5658 5657 1 
1106 6167 6189 2 
1107 5657 6165 2 
1108 171 5649 2 
1109 1178 894 3 
1110 1178 1177 1 
1111 460 702 3 
1112 460 459 1 
1113 460 692 3 
1114 459 935 2 
1115 2431 2437 2 
1116 2661 2667 2 
1117 2722 2422 3 
1118 2722 2721 1 
1119 2443 2467 2 
1120 1663 2721 2 
1121 4429 4695 2 
1122 4167 4457 2 
1123 4165 4673 2 
1124 5183 5453 2 
1125 5670 5924 3 
1126 5670 5669 1 
1127 5184 5183 1 
1128 5426 5184 3 
1129 689 893 2 
1130 693 1177 2 
1131 428 694 3 
1132 694 693 1 
1133 193 6195 2 
1134 730 729 1 
1135 5994 730 3 
1136 197 449 2 
1137 427 428 1 
1138 657 683 2 
1139 936 682 3 
1140 936 935 1 
1141 710 936 3 
1142 710 709 1 
1143 672 936 3 
1144 672 671 1 
1145 672 710 3 
1146 682 672 3 
1147 682 681 1 
1148 682 710 3 
1149 1454 1453 1 
1150 1666 1454 3 
1151 2426 1940 3 
1152 1940 1939 1 
1153 1711 1943 2 
1154 1706 1688 3 
1155 1706 1705 1 
1156 1688 2432 3 
1157 1688 1687 1 
1158 2432 1706 3 
1159 2432 2431 1 
1160 1687 1949 2 
1161 3401 3435 2 
1162 3401 3402 1 
1163 2442 1950 3 
1164 2442 2440 3 
1165 2442 2441 1 
1166 2899 3673 2 
1167 3674 3673 1 
1168 3172 3674 3 
1169 3460 3459 1 
1170 3976 3460 3 
1171 4219 4693 2 
1172 4219 4220 1 
1173 3929 4667 2 
1174 3930 4166 3 
1175 3930 3929 1 
1176 4166 3430 3 
1177 4166 4165 1 
1178 4694 3686 3 
1179 4694 4693 1 
1180 3430 3930 3 
1181 3430 3429 1 
1182 4682 4212 3 
1183 4682 4681 1 
1184 4682 4694 3 
1185 4212 4694 3 
1186 4212 4211 1 
1187 3686 4212 3 
1188 3686 3685 1 
1189 3686 4682 3 
1190 5462 5461 1 
1191 5196 5462 3 
1192 5195 5196 1 
1193 5195 5219 2 
1194 4697 5457 2 
1195 5457 5458 1 
1196 5458 5224 3 
1197 5220 4460 3 
1198 5220 5219 1 
1199 4460 5218 3 
1200 4460 4459 1 
1201 5218 5220 3 
1202 5218 5217 1 
1203 4186 5218 3 
1204 4186 4185 1 
1205 4186 4460 3 
1206 4186 5220 3 
1207 5924 5672 3 
1208 5924 5923 1 
1209 5454 6222 3 
1210 5454 5453 1 
1211 5672 5670 3 
1212 5672 5671 1 
1213 196 194 3 
1214 194 193 1 
1215 6197 6219 2 
1216 436 1180 3 
1217 436 435 1 
1218 221 222 1 
1219 221 431 2 
1220 697 698 1 
1221 1180 458 3 
1222 1180 1179 1 
1223 458 436 3 
1224 458 457 1 
1225 451 452 1 
1226 451 5993 2 
1227 433 697 2 
1228 178 177 1 
1229 222 178 3 
1230 709 1461 2 
1231 1480 1462 3 
1232 1480 1479 1 
1233 1462 1496 3 
1234 1462 1461 1 
1235 1422 1496 3 
1236 1422 1421 1 
1237 1422 1480 3 
1238 1422 1462 3 
1239 1496 1480 3 
1240 1496 1495 1 
1241 177 1189 2 
1242 1189 1190 1 
1243 1713 1983 2 
1244 1225 1421 2 
1245 1226 1214 3 
1246 1226 1225 1 
1247 1226 2204 3 
1248 2204 726 3 
1249 2204 2203 1 
1250 1214 2204 3 
1251 1214 1213 1 
1252 726 1214 3 
1253 726 725 1 
1254 726 1226 3 
1255 1217 1941 2 
1256 1942 1964 3 
1257 1942 1941 1 
1258 1942 2206 3 
1259 1720 1719 1 
1260 1720 2206 3 
1261 1964 1720 3 
1262 1964 1963 1 
1263 1964 2206 3 
1264 1944 1204 3 
1265 1944 1943 1 
1266 2925 2441 2 
1267 3958 3946 3 
1268 3958 3957 1 
1269 3171 3172 1 
1270 3171 3189 2 
1271 2948 3958 3 
1272 2948 2947 1 
1273 2948 3450 3 
1274 2948 3946 3 
1275 3946 3450 3 
1276 3946 3945 1 
1277 3968 3967 1 
1278 3967 3977 2 
1279 3459 3957 2 
1280 3945 4671 2 
1281 3961 4435 2 
1282 4220 4672 3 
1283 4672 4671 1 
1284 3940 3706 3 
1285 3940 3939 1 
1286 3429 3693 2 
1287 4443 4444 1 
1288 3706 3724 3 
1289 3706 3705 1 
1290 3707 4443 2 
1291 3761 5441 2 
1292 5442 4210 3 
1293 5442 5441 1 
1294 4210 4698 3 
1295 4210 4209 1 
1296 4448 4210 3 
1297 4448 4447 1 
1298 4448 5442 3 
1299 4698 4448 3 
1300 4698 4697 1 
1301 4698 5442 3 
1302 4447 5217 2 
1303 5470 5696 3 
1304 5470 5469 1 
1305 5696 5230 3 
1306 5696 5695 1 
1307 5696 6240 3 
1308 5230 5470 3 
1309 5230 5229 1 
1310 5230 6240 3 
1311 6240 5470 3 
1312 6240 6239 1 
1313 5229 5931 2 
1314 5484 5483 1 
1315 5972 5484 3 
1316 461 462 1 
1317 179 461 2 
1318 432 454 3 
1319 432 431 1 
1320 6192 432 3 
1321 6192 6191 1 
1322 454 6192 3 
1323 454 453 1 
1324 228 6220 3 
1325 6220 6219 1 
1326 479 480 1 
1327 716 920 3 
1328 716 6220 3 
1329 924 920 3 
1330 480 464 3 
1331 457 6199 2 
1332 1714 6200 3 
1333 1714 1713 1 
1334 6200 472 3 
1335 6200 6199 1 
1336 2501 2977 2 
1337 2977 2978 1 
1338 3926 3968 3 
1339 3450 3958 3 
1340 3450 3449 1 
1341 2445 2446 1 
1342 2445 3207 2 
1343 2190 3984 3 
1344 2190 2450 3 
1345 2190 2189 1 
1346 3422 3702 3 
1347 3702 3701 1 
1348 3466 3762 3 
1349 3466 3465 1 
1350 4464 3466 3 
1351 4464 4463 1 
1352 4206 4988 3 
1353 4206 4205 1 
1354 3762 4464 3 
1355 3762 3761 1 
1356 4474 4206 3 
1357 4474 4473 1 
1358 4474 4988 3 
1359 4988 4438 3 
1360 4988 4987 1 
1361 4438 4206 3 
1362 4438 4437 1 
1363 4438 4474 3 
1364 4252 4508 3 
1365 4508 4507 1 
1366 5693 5695 2 
1367 465 6239 2 
1368 466 5464 3 
1369 466 465 1 
1370 232 466 3 
1371 232 231 1 
1372 5464 232 3 
1373 5464 5463 1 
1374 706 180 3 
1375 706 705 1 
1376 706 5478 3 
1377 5968 706 3 
1378 5968 5967 1 
1379 5478 5968 3 
1380 5478 5477 1 
1381 180 5968 3 
1382 180 179 1 
1383 180 5478 3 
1384 5486 5676 3 
1385 5486 5485 1 
1386 5676 6164 3 
1387 5676 5675 1 
1388 453 923 2 
1389 6238 6250 3 
1390 6238 6237 1 
1391 6250 504 3 
1392 6250 6249 1 
1393 238 237 1 
1394 950 238 3 
1395 463 971 2 
1396 464 463 1 
1397 1216 1458 3 
1398 1216 1215 1 
1399 1470 1216 3 
1400 1470 1469 1 
1401 1458 1470 3 
1402 1458 1457 1 
1403 1196 966 3 
1404 1196 1195 1 
1405 2730 2236 3 
1406 2730 2729 1 
1407 2236 1736 3 
1408 2236 2235 1 
1409 1474 1478 3 
1410 1478 1477 1 
1411 1486 2236 3 
1412 1486 1485 1 
1413 1486 2730 3 
1414 1486 1736 3 
1415 2966 2710 3 
1416 2966 2965 1 
1417 2189 2953 2 
1418 2953 2954 1 
1419 3984 2450 3 
1420 3984 3983 1 
1421 4194 4198 3 
1422 4194 4193 1 
1423 4194 4208 3 
1424 3960 4194 3 
1425 3960 3959 1 
1426 3960 4208 3 
1427 4208 4198 3 
1428 4208 4207 1 
1429 4198 3960 3 
1430 4198 4197 1 
1431 3933 3959 2 
1432 4969 4987 2 
1433 3998 4478 3 
1434 3998 3997 1 
1435 4714 4982 3 
1436 4714 4713 1 
1437 4992 4714 3 
1438 4992 4991 1 
1439 4982 4992 3 
1440 4982 4981 1 
1441 4251 4711 2 
1442 4251 4252 1 
1443 4981 5203 2 
1444 5245 5246 1 
1445 5245 5961 2 
1446 231 5973 2 
1447 230 5992 3 
1448 230 229 1 
1449 5992 5468 3 
1450 5992 5991 1 
1451 504 6238 3 
1452 504 503 1 
1453 438 6238 3 
1454 438 437 1 
1455 438 504 3 
1456 438 6250 3 
1457 498 732 3 
1458 498 497 1 
1459 732 6230 3 
1460 732 731 1 
1461 731 749 2 
1462 992 718 3 
1463 992 991 1 
1464 992 1494 3 
1465 718 970 3 
1466 718 717 1 
1467 1494 718 3 
1468 1494 1493 1 
1469 970 1494 3 
1470 970 969 1 
1471 970 992 3 
1472 469 737 2 
1473 1475 1476 1 
1474 1247 1475 2 
1475 1202 1490 3 
1476 1202 1201 1 
1477 740 1202 3 
1478 740 739 1 
1479 740 958 3 
1480 1993 1994 1 
1481 1993 2729 2 
1482 1473 1474 1 
1483 1465 1466 1 
1484 1465 1473 2 
1485 1477 1991 2 
1486 1991 1992 1 
1487 1945 2227 2 
1488 1237 2471 2 
1489 2461 2462 1 
1490 2710 2990 3 
1491 2710 2709 1 
1492 2990 2966 3 
1493 2990 2989 1 
1494 2232 2460 3 
1495 2232 2231 1 
1496 2232 2700 3 
1497 2232 3472 3 
1498 3472 2460 3 
1499 3472 3471 1 
1500 2460 2700 3 
1501 2460 2459 1 
1502 2700 3472 3 
1503 2700 2699 1 
1504 2748 2210 3 
1505 2748 2747 1 
1506 3970 2748 3 
1507 3970 3969 1 
1508 2210 3970 3 
1509 2210 2209 1 
1510 3969 4241 2 
1511 3473 3474 1 
1512 3473 4193 2 
1513 3477 3721 2 
1514 4479 4713 2 
1515 4501 4991 2 
1516 5028 4232 3 
1517 5028 5027 1 
1518 4734 5252 3 
1519 5252 5251 1 
1520 4284 5222 3 
1521 4284 4283 1 
1522 4284 4722 3 
1523 4284 4990 3 
1524 5222 4722 3 
1525 5222 5221 1 
1526 4722 4990 3 
1527 4722 4721 1 
1528 236 242 3 
1529 236 5974 3 
1530 236 235 1 
1531 5974 226 3 
1532 5974 5973 1 
1533 226 236 3 
1534 226 225 1 
1535 5487 5991 2 
1536 242 5974 3 
1537 242 226 3 
1538 242 241 1 
1539 5246 5248 3 
1540 5709 5710 1 
1541 241 5709 2 
1542 254 5982 3 
1543 254 253 1 
1544 254 6026 3 
1545 508 254 3 
1546 508 507 1 
1547 508 6026 3 
1548 6026 5982 3 
1549 6026 6025 1 
1550 5982 508 3 
1551 5982 5981 1 
1552 253 6235 2 
1553 5730 5729 1 
1554 46 5730 3 
1555 11 6051 2 
1556 6051 6052 1 
1557 491 739 2 
1558 1248 744 3 
1559 1248 1247 1 
1560 736 1224 3 
1561 736 735 1 
1562 1730 736 3 
1563 1730 1729 1 
1564 3000 2736 3 
1565 3000 2999 1 
1566 2736 2228 3 
1567 2736 2735 1 
1568 2228 3000 3 
1569 2228 2227 1 
1570 2507 2755 2 
1571 2280 2279 1 
1572 2280 2492 3 
1573 2280 2786 3 
1574 2792 3268 3 
1575 2792 2791 1 
1576 2791 3267 2 
1577 2491 2492 1 
1578 2491 2493 2 
1579 2516 4004 3 
1580 2516 2515 1 
1581 4004 3468 3 
1582 4004 4003 1 
1583 3468 2516 3 
1584 3468 3467 1 
1585 3798 3812 3 
1586 3798 3797 1 
1587 3812 3016 3 
1588 3812 3811 1 
1589 3016 3798 3 
1590 3016 3015 1 
1591 5241 5251 2 
1592 3751 4015 2 
1593 4259 4721 2 
1594 4990 5222 3 
1595 4990 4989 1 
1596 225 6025 2 
1597 5488 5487 1 
1598 5255 5747 2 
1599 247 5753 2 
1600 5784 6038 3 
1601 5518 490 3 
1602 5518 5517 1 
1603 6038 6037 1 
1604 5754 5518 3 
1605 5754 5753 1 
1606 243 475 2 
1607 6014 6018 3 
1608 6014 6013 1 
1609 6018 474 3 
1610 6018 6017 1 
1611 474 6014 3 
1612 474 473 1 
1613 767 768 1 
1614 767 1043 2 
1615 24 474 3 
1616 24 23 1 
1617 24 6018 3 
1618 24 6014 3 
1619 501 502 1 
1620 1011 1483 2 
1621 1012 782 3 
1622 1012 1011 1 
1623 1012 1030 3 
1624 1012 1276 3 
1625 782 1276 3 
1626 782 781 1 
1627 516 284 3 
1628 284 283 1 
1629 284 502 3 
1630 270 522 3 
1631 270 768 3 
1632 270 526 3 
1633 48 516 3 
1634 48 284 3 
1635 48 764 3 
1636 526 522 3 
1637 526 1022 3 
1638 768 1022 3 
1639 522 521 1 
1640 522 768 3 
1641 502 1022 3 
1642 502 516 3 
1643 781 1523 2 
1644 515 516 1 
1645 515 1263 2 
1646 1030 782 3 
1647 1030 1029 1 
1648 535 1021 2 
1649 509 1243 2 
1650 722 1510 3 
1651 722 721 1 
1652 1260 722 3 
1653 1260 1259 1 
1654 1245 1246 1 
1655 485 1239 2 
1656 1769 1770 1 
1657 1021 1022 1 
1658 983 1245 2 
1659 1510 1260 3 
1660 1510 1509 1 
1661 741 742 1 
1662 741 973 2 
1663 1758 1020 3 
1664 1758 1757 1 
1665 536 1002 3 
1666 536 535 1 
1667 536 1758 3 
1668 1002 1020 3 
1669 1002 1001 1 
1670 1002 1758 3 
1671 1020 536 3 
1672 1020 1019 1 
1673 1786 1008 3 
1674 1786 1785 1 
1675 1508 1280 3 
1676 1508 1507 1 
1677 1508 1786 3 
1678 1008 1280 3 
1679 1008 1007 1 
1680 1008 1508 3 
1681 1280 1786 3 
1682 1280 1279 1 
1683 1723 2253 2 
1684 2253 2254 1 
1685 1743 1744 1 
1686 1511 1512 1 
1687 1511 1743 2 
1688 1751 2769 2 
1689 2023 2293 2 
1690 2009 2505 2 
1691 2279 2509 2 
1692 2785 2786 1 
1693 2481 2482 1 
1694 2481 3017 2 
1695 3017 3018 1 
1696 1233 2971 2 
1697 2525 2785 2 
1698 2972 2242 3 
1699 2972 2971 1 
1700 2531 2731 2 
1701 2224 2972 3 
1702 2224 2223 1 
1703 2242 2224 3 
1704 2242 2241 1 
1705 3006 2992 3 
1706 3006 3005 1 
1707 2992 2778 3 
1708 2992 2991 1 
1709 2992 3002 3 
1710 3005 3229 2 
1711 3448 3012 3 
1712 3448 3447 1 
1713 3012 2490 3 
1714 3012 3011 1 
1715 2261 2771 2 
1716 2490 2248 3 
1717 2490 2489 1 
1718 2490 3448 3 
1719 2248 3012 3 
1720 2248 2247 1 
1721 2248 3448 3 
1722 3261 3545 2 
1723 3002 2778 3 
1724 3002 3001 1 
1725 3002 3006 3 
1726 2983 2997 2 
1727 2983 2984 1 
1728 2521 2522 1 
1729 2521 3515 2 
1730 2778 3006 3 
1731 2778 2777 1 
1732 3303 3304 1 
1733 2535 3001 2 
1734 3026 2798 3 
1735 3026 3025 1 
1736 3467 3735 2 
1737 2984 4010 3 
1738 3029 4023 2 
1739 4010 4009 1 
1740 4286 4514 3 
1741 4285 4286 1 
1742 3270 4024 3 
1743 2749 3245 2 
1744 4024 4023 1 
1745 3287 3521 2 
1746 4017 4285 2 
1747 3517 3518 1 
1748 3517 3989 2 
1749 4018 3506 3 
1750 4018 4017 1 
1751 4018 4726 3 
1752 4504 4018 3 