ITEM: TIMESTEP
73920
ITEM: NUMBER OF ENTRIES
7980
ITEM: BOX BOUNDS pp pp ff
0.0000000000000000e+00 7.2168784000000002e+01
0.0000000000000000e+00 7.2168784000000002e+01
0.0000000000000000e+00 1.2000000000000000e+01
ITEM: ENTRIES index c_1[1] c_1[2] c_1[3]
1 15 499 2 
2 249 5517 2 
3 244 243 1 
4 6022 248 3 
5 6022 6021 1 
6 12 34 3 
7 12 11 1 
8 12 6022 3 
9 248 12 3 
10 248 247 1 
11 34 248 3 
12 34 33 1 
13 34 6022 3 
14 243 475 2 
15 284 283 1 
16 284 502 3 
17 11 6051 2 
18 748 747 1 
19 269 270 1 
20 233 269 2 
21 536 1002 3 
22 536 535 1 
23 536 1758 3 
24 1758 1020 3 
25 1758 1757 1 
26 1020 536 3 
27 1020 1019 1 
28 1747 1757 2 
29 2785 2786 1 
30 2742 1752 3 
31 2525 2785 2 
32 2777 3787 2 
33 3510 3010 3 
34 3510 3509 1 
35 3986 3510 3 
36 3986 3985 1 
37 3010 3986 3 
38 3010 3009 1 
39 3788 2262 3 
40 3788 3787 1 
41 3262 3788 3 
42 3262 3261 1 
43 3756 3004 3 
44 3756 3755 1 
45 3270 4024 3 
46 3015 3525 2 
47 3769 4503 2 
48 3511 3512 1 
49 3505 3765 2 
50 4245 4529 2 
51 5238 6246 3 
52 5238 5237 1 
53 5507 5508 1 
54 5014 5502 3 
55 5502 5501 1 
56 5759 5760 1 
57 6224 250 3 
58 6224 6223 1 
59 250 6008 3 
60 250 249 1 
61 250 1006 3 
62 6008 6224 3 
63 6008 6007 1 
64 1006 6224 3 
65 1006 1005 1 
66 1006 6008 3 
67 5783 5795 2 
68 5783 5784 1 
69 29 251 2 
70 6002 244 3 
71 30 6016 3 
72 30 29 1 
73 30 5516 3 
74 5516 6016 3 
75 5516 5515 1 
76 6011 6021 2 
77 6016 520 3 
78 6016 6015 1 
79 520 30 3 
80 520 519 1 
81 520 5516 3 
82 516 284 3 
83 526 522 3 
84 526 1022 3 
85 270 522 3 
86 270 768 3 
87 270 526 3 
88 522 521 1 
89 522 768 3 
90 502 1022 3 
91 502 516 3 
92 768 1022 3 
93 759 777 2 
94 2298 2526 3 
95 2298 2297 1 
96 2298 2774 3 
97 2526 2764 3 
98 2526 2525 1 
99 2764 2298 3 
100 2764 2763 1 
101 2002 2486 3 
102 2002 2774 3 
103 2486 2485 1 
104 2486 2774 3 
105 2001 2002 1 
106 2001 2485 2 
107 2261 2771 2 
108 3268 2768 3 
109 3268 3267 1 
110 3985 4257 2 
111 3495 3496 1 
112 4257 4258 1 
113 3271 3495 2 
114 3502 3501 1 
115 3992 3502 3 
116 4011 4012 1 
117 4788 4246 3 
118 4788 4787 1 
119 4526 4788 3 
120 4526 4525 1 
121 245 1005 2 
122 252 6012 3 
123 252 251 1 
124 252 5768 3 
125 5768 5772 3 
126 5768 5767 1 
127 5768 6012 3 
128 6012 5772 3 
129 6012 6011 1 
130 5772 252 3 
131 5772 5771 1 
132 5796 5795 1 
133 239 240 1 
134 239 5539 2 
135 5765 6013 2 
136 273 541 2 
137 17 18 1 
138 1067 1068 1 
139 792 554 3 
140 792 791 1 
141 792 1068 3 
142 2551 2552 1 
143 3264 3538 3 
144 3264 3263 1 
145 3264 3272 3 
146 3538 3034 3 
147 3538 3537 1 
148 3272 3034 3 
149 3272 3271 1 
150 3272 3538 3 
151 3034 3264 3 
152 3034 3033 1 
153 4041 4265 2 
154 3995 4269 2 
155 3991 3992 1 
156 4039 4277 2 
157 4772 5024 3 
158 4772 4771 1 
159 4525 4789 2 
160 5002 4754 3 
161 5002 5001 1 
162 5002 5290 3 
163 18 5788 3 
164 5788 5787 1 
165 6030 5540 3 
166 6030 6029 1 
167 1330 1329 1 
168 20 1330 3 
169 546 792 3 
170 546 545 1 
171 546 1068 3 
172 554 546 3 
173 554 553 1 
174 554 1068 3 
175 1268 1760 3 
176 1268 1267 1 
177 1760 1536 3 
178 1760 1759 1 
179 1278 1268 3 
180 1278 1277 1 
181 1278 1760 3 
182 1278 1536 3 
183 3784 3783 1 
184 2552 3784 3 
185 2038 2037 1 
186 3046 2038 3 
187 3292 3310 3 
188 3292 3291 1 
189 3792 3292 3 
190 3792 3791 1 
191 3310 3792 3 
192 3310 3309 1 
193 3574 4066 3 
194 3574 3573 1 
195 5024 4518 3 
196 5024 5023 1 
197 3312 3311 1 
198 3312 3804 3 
199 4518 4772 3 
200 4518 4517 1 
201 3804 4052 3 
202 4554 4553 1 
203 4802 4554 3 
204 4790 4789 1 
205 4316 4790 3 
206 31 773 2 
207 1552 1808 3 
208 1808 1807 1 
209 1333 2307 2 
210 1551 1552 1 
211 1301 1569 2 
212 1540 1572 3 
213 1540 1539 1 
214 1823 2289 2 
215 1302 1540 3 
216 1302 1301 1 
217 1572 1302 3 
218 1572 1571 1 
219 2328 2574 3 
220 2328 2327 1 
221 2574 1828 3 
222 2574 2573 1 
223 1828 2328 3 
224 1828 1827 1 
225 1795 2053 2 
226 1322 2574 3 
227 1322 1321 1 
228 1322 2328 3 
229 1322 1828 3 
230 2564 2776 3 
231 2564 2563 1 
232 1796 2564 3 
233 1796 1795 1 
234 1796 2776 3 
235 1796 2044 3 
236 2044 2564 3 
237 2044 2043 1 
238 2776 2044 3 
239 2776 2775 1 
240 2822 3280 3 
241 2822 2821 1 
242 3300 2822 3 
243 3300 3299 1 
244 3840 3602 3 
245 3840 3839 1 
246 4291 4587 2 
247 4801 4802 1 
248 5302 5044 3 
249 5302 5301 1 
250 5814 5302 3 
251 5814 5813 1 
252 5044 5814 3 
253 5044 5043 1 
254 5819 6083 2 
255 5988 5987 1 
256 5034 5988 3 
257 5542 5820 3 
258 5542 5541 1 
259 5820 5552 3 
260 5820 5819 1 
261 562 300 3 
262 562 561 1 
263 76 562 3 
264 76 75 1 
265 324 76 3 
266 324 323 1 
267 324 562 3 
268 300 76 3 
269 300 299 1 
270 300 324 3 
271 75 6093 2 
272 329 330 1 
273 329 561 2 
274 5805 6043 2 
275 798 314 3 
276 798 797 1 
277 72 314 3 
278 72 71 1 
279 72 798 3 
280 70 798 3 
281 70 69 1 
282 70 72 3 
283 1313 1807 2 
284 2599 2600 1 
285 1539 1791 2 
286 2303 2304 1 
287 1064 1572 3 
288 1064 1063 1 
289 1064 1540 3 
290 1064 1302 3 
291 1816 1815 1 
292 2600 1816 3 
293 2291 2353 2 
294 2304 1314 3 
295 1314 1313 1 
296 2292 1824 3 
297 2292 2291 1 
298 2353 2354 1 
299 1824 1800 3 
300 1824 1823 1 
301 2844 2562 3 
302 2844 2843 1 
303 2844 3074 3 
304 3074 3086 3 
305 3074 3073 1 
306 2562 3086 3 
307 2562 2561 1 
308 2562 3074 3 
309 2036 2035 1 
310 2810 2036 3 
311 2593 3565 2 
312 2793 2811 2 
313 2035 3587 2 
314 3067 3321 2 
315 3859 3860 1 
316 3859 4075 2 
317 3061 4311 2 
318 3331 3567 2 
319 4292 3568 3 
320 4292 4291 1 
321 4292 4300 3 
322 3568 4058 3 
323 3568 3567 1 
324 3568 4300 3 
325 4300 4058 3 
326 4300 4299 1 
327 4058 4292 3 
328 4058 4057 1 
329 4568 4768 3 
330 6084 5816 3 
331 6084 6083 1 
332 5816 74 3 
333 5816 5815 1 
334 74 6084 3 
335 74 73 1 
336 5567 5781 2 
337 5781 5782 1 
338 5559 6053 2 
339 5806 6054 3 
340 5806 5805 1 
341 5806 5826 3 
342 6054 354 3 
343 6054 6053 1 
344 354 5806 3 
345 354 353 1 
346 354 5826 3 
347 5826 6054 3 
348 5826 5825 1 
349 5568 5560 3 
350 5568 5567 1 
351 5821 5822 1 
352 55 67 2 
353 308 307 1 
354 826 1076 3 
355 826 825 1 
356 68 826 3 
357 68 67 1 
358 68 610 3 
359 327 328 1 
360 610 1076 3 
361 610 609 1 
362 610 826 3 
363 825 1813 2 
364 1560 1078 3 
365 1560 1559 1 
366 1078 844 3 
367 1078 1077 1 
368 844 1560 3 
369 844 843 1 
370 828 1832 3 
371 828 827 1 
372 1832 1074 3 
373 1832 1831 1 
374 1074 828 3 
375 1074 1073 1 
376 2581 2582 1 
377 1799 2069 2 
378 2354 2582 3 
379 2354 3038 3 
380 1790 2058 3 
381 1790 1789 1 
382 1790 2354 3 
383 3038 3037 1 
384 2582 2824 3 
385 2824 3038 3 
386 2070 2069 1 
387 2070 3352 3 
388 2046 2312 3 
389 2046 2582 3 
390 2058 2306 3 
391 2058 2057 1 
392 2058 3352 3 
393 2312 2311 1 
394 2306 1790 3 
395 2306 2305 1 
396 2306 3352 3 
397 1826 2070 3 
398 1825 1845 2 
399 1825 1826 1 
400 2337 2338 1 
401 2337 2827 2 
402 1845 1846 1 
403 2809 2810 1 
404 2330 2594 3 
405 2330 2329 1 
406 2794 3554 3 
407 2794 2793 1 
408 2594 3056 3 
409 2594 2593 1 
410 3056 2330 3 
411 3056 3055 1 
412 2820 2794 3 
413 2820 2819 1 
414 3554 2820 3 
415 3554 3553 1 
416 3584 3583 1 
417 3596 3584 3 
418 3830 3324 3 
419 3830 3829 1 
420 3848 3830 3 
421 3848 3847 1 
422 3324 3848 3 
423 3324 3323 1 
424 3850 3822 3 
425 3850 3849 1 
426 3850 4610 3 
427 5563 5811 2 
428 5052 5051 1 
429 5090 5052 3 
430 5315 5316 1 
431 5089 5090 1 
432 5564 6080 3 
433 5564 5563 1 
434 5083 5089 2 
435 6080 544 3 
436 6080 6079 1 
437 544 5564 3 
438 544 543 1 
439 5609 5610 1 
440 5560 5808 3 
441 5560 5559 1 
442 5560 5794 3 
443 5838 5837 1 
444 5822 5838 3 
445 345 575 2 
446 356 308 3 
447 564 563 1 
448 564 840 3 
449 840 839 1 
450 82 564 3 
451 82 840 3 
452 355 356 1 
453 81 82 1 
454 81 563 2 
455 839 1337 2 
456 595 1107 2 
457 1077 1367 2 
458 841 843 2 
459 1367 1368 1 
460 1083 1563 2 
461 1341 1342 1 
462 1341 1831 2 
463 818 1098 3 
464 818 817 1 
465 1098 2120 3 
466 1098 1097 1 
467 2319 2320 1 
468 817 2319 2 
469 2120 818 3 
470 2120 2119 1 
471 2320 1600 3 
472 2320 2368 3 
473 3351 3352 1 
474 2359 2367 2 
475 2367 2368 1 
476 1811 2623 2 
477 2081 2089 2 
478 2045 2046 1 
479 2045 3043 2 
480 3037 3095 2 
481 2082 2081 1 
482 2816 2082 3 
483 2338 2072 3 
484 2580 2579 1 
485 2072 2071 1 
486 1846 2580 3 
487 3595 3596 1 
488 3595 4107 2 
489 3847 3829 2 
490 4572 3850 3 
491 4572 4571 1 
492 3822 4572 3 
493 3822 3821 1 
494 3822 4610 3 
495 4610 4572 3 
496 4610 4609 1 
497 3833 4571 2 
498 3833 3834 1 
499 4853 4854 1 
500 5346 4340 3 
501 5346 5345 1 
502 4604 5346 3 
503 4604 4603 1 
504 4340 4604 3 
505 4340 4339 1 
506 5051 5573 2 
507 906 6144 3 
508 906 905 1 
509 116 115 1 
510 90 116 3 
511 1113 1573 2 
512 1573 1574 1 
513 842 1582 3 
514 842 841 1 
515 842 848 3 
516 1342 1596 3 
517 1342 1860 3 
518 1638 860 3 
519 1596 1595 1 
520 1586 1585 1 
521 1368 1596 3 
522 860 859 1 
523 1108 862 3 
524 1108 1107 1 
525 1084 842 3 
526 1084 1083 1 
527 2063 2064 1 
528 1582 1084 3 
529 1582 1581 1 
530 2064 2368 3 
531 2064 2120 3 
532 1810 2090 3 
533 1810 1809 1 
534 2090 2074 3 
535 2090 2089 1 
536 2074 1810 3 
537 2074 2073 1 
538 1812 1810 3 
539 1812 1811 1 
540 1812 2074 3 
541 1812 2090 3 
542 2109 2607 2 
543 1819 2577 2 
544 2815 2816 1 
545 2351 2357 2 
546 2357 2358 1 
547 2358 2870 3 
548 3091 3335 2 
549 3092 3606 3 
550 3092 3091 1 
551 3606 3864 3 
552 3606 3605 1 
553 4337 4338 1 
554 4337 4841 2 
555 2841 3333 2 
556 4856 4332 3 
557 4856 4855 1 
558 4332 4100 3 
559 4332 4331 1 
560 4324 4100 3 
561 4324 4323 1 
562 4324 4332 3 
563 4324 4856 3 
564 4100 4856 3 
565 4100 4099 1 
566 5106 4580 3 
567 5106 5105 1 
568 5106 5376 3 
569 4599 4875 2 
570 4599 4600 1 
571 4595 5093 2 
572 4596 4595 1 
573 4600 4596 3 
574 5864 5863 1 
575 362 5864 3 
576 361 362 1 
577 6112 5608 3 
578 6112 6111 1 
579 5608 824 3 
580 5608 5607 1 
581 824 6112 3 
582 824 823 1 
583 5616 906 3 
584 5616 5615 1 
585 6144 6143 1 
586 1079 1080 1 
587 1079 1355 2 
588 1870 1852 3 
589 1870 1869 1 
590 1852 1394 3 
591 1852 1851 1 
592 2128 2136 3 
593 2128 2127 1 
594 1618 2128 3 
595 1618 1617 1 
596 1618 2092 3 
597 1618 2136 3 
598 2092 2128 3 
599 2092 2091 1 
600 1606 1630 3 
601 1606 1605 1 
602 1351 2127 2 
603 1867 1868 1 
604 1867 2371 2 
605 1835 2115 2 
606 2825 3339 2 
607 2116 2115 1 
608 1868 2116 3 
609 1352 1820 3 
610 1352 1351 1 
611 2870 2869 1 
612 3864 3092 3 
613 3864 3863 1 
614 2335 3123 2 
615 3593 3863 2 
616 4363 4364 1 
617 3873 4363 2 
618 3624 3623 1 
619 4124 3594 3 
620 4124 4123 1 
621 4842 4608 3 
622 4842 4841 1 
623 4570 4842 3 
624 4570 4569 1 
625 4570 4590 3 
626 4570 4608 3 
627 4608 4590 3 
628 4608 4607 1 
629 4590 4842 3 
630 4590 4589 1 
631 3594 3366 3 
632 3594 3593 1 
633 3366 3334 3 
634 3366 3365 1 
635 3366 4124 3 
636 4121 4607 2 
637 3334 3594 3 
638 3334 3333 1 
639 3334 4124 3 
640 4122 4822 3 
641 4122 4346 3 
642 4122 4121 1 
643 4621 4627 2 
644 4375 4376 1 
645 4375 5375 2 
646 1080 852 3 
647 615 1431 2 
648 1432 1356 3 
649 1432 1431 1 
650 603 851 2 
651 1356 1106 3 
652 1356 1355 1 
653 140 139 1 
654 1610 140 3 
655 1372 1371 1 
656 633 634 1 
657 1601 1602 1 
658 1394 1870 3 
659 1394 1393 1 
660 1862 1590 3 
661 1862 1861 1 
662 1590 2376 3 
663 1590 1589 1 
664 2376 1862 3 
665 2376 2375 1 
666 1132 3134 3 
667 1132 1131 1 
668 2372 1132 3 
669 2372 2371 1 
670 2856 1858 3 
671 2856 2855 1 
672 2856 3340 3 
673 3134 2372 3 
674 3134 3133 1 
675 2616 2856 3 
676 2616 2615 1 
677 1858 1857 1 
678 1858 3340 3 
679 1858 2616 3 
680 3340 2616 3 
681 3340 3339 1 
682 2903 3133 2 
683 2903 2904 1 
684 3844 3380 3 
685 3844 3843 1 
686 3380 3644 3 
687 3380 3379 1 
688 3644 3844 3 
689 3644 3643 1 
690 3910 3909 1 
691 3372 3910 3 
692 3371 3372 1 
693 3124 2336 3 
694 3124 3123 1 
695 3124 3874 3 
696 2336 3884 3 
697 2336 2335 1 
698 2336 3874 3 
699 3884 3124 3 
700 3884 3883 1 
701 3874 3884 3 
702 3874 3873 1 
703 4104 4870 3 
704 4104 4103 1 
705 3875 3876 1 
706 3875 4589 2 
707 4369 4869 2 
708 4103 4115 2 
709 4383 4889 2 
710 5832 5831 1 
711 6120 5842 3 
712 5842 5841 1 
713 852 851 1 
714 877 5875 2 
715 379 6113 2 
716 1106 1432 3 
717 1106 1105 1 
718 1105 1135 2 
719 6142 1372 3 
720 6125 6126 1 
721 1650 1649 1 
722 1662 1650 3 
723 1381 1382 1 
724 1381 1897 2 
725 2170 2094 3 
726 2094 2093 1 
727 2166 1892 3 
728 2166 2165 1 
729 1892 1876 3 
730 1892 1891 1 
731 1876 2166 3 
732 1876 1875 1 
733 2362 1642 3 
734 1131 1139 2 
735 1642 1641 1 
736 2904 2390 3 
737 1363 3373 2 
738 2390 2389 1 
739 3369 3867 2 
740 2877 3897 2 
741 3136 2878 3 
742 3370 3369 1 
743 3144 3376 3 
744 3144 3143 1 
745 3135 3909 2 
746 3135 3136 1 
747 2878 2877 1 
748 3622 3621 1 
749 4924 3622 3 
750 3143 3641 2 
751 5356 5122 3 
752 5356 5355 1 
753 4120 5356 3 
754 4120 4119 1 
755 5122 4120 3 
756 5122 5121 1 
757 5121 5143 2 
758 6114 390 3 
759 6114 6113 1 
760 102 6086 3 
761 102 101 1 
762 102 878 3 
763 342 102 3 
764 342 341 1 
765 342 878 3 
766 878 6086 3 
767 878 877 1 
768 6086 342 3 
769 6086 6085 1 
770 390 124 3 
771 390 389 1 
772 124 6114 3 
773 124 123 1 
774 124 128 3 
775 128 6114 3 
776 128 127 1 
777 128 390 3 
778 401 402 1 
779 1136 1135 1 
780 1134 1136 3 
781 181 401 2 
782 1898 1624 3 
783 1898 1897 1 
784 1624 1162 3 
785 1624 1623 1 
786 1624 1682 3 
787 1682 1162 3 
788 1682 1681 1 
789 1682 1898 3 
790 1162 1898 3 
791 1162 1161 1 
792 2648 1938 3 
793 2648 2647 1 
794 1364 1896 3 
795 1364 1363 1 
796 1896 1670 3 
797 1896 1895 1 
798 1896 2622 3 
799 1641 2395 2 
800 1938 2662 3 
801 1938 1937 1 
802 2622 1364 3 
803 2622 2621 1 
804 1895 2401 2 
805 1889 2389 2 
806 2402 2888 3 
807 2402 2401 1 
808 3408 3400 3 
809 3408 3407 1 
810 3400 2680 3 
811 3400 3399 1 
812 2680 2158 3 
813 2680 2679 1 
814 2680 3408 3 
815 2158 3400 3 
816 2158 2157 1 
817 2158 3408 3 
818 3161 4141 2 
819 3161 3162 1 
820 3162 3370 3 
821 4923 4924 1 
822 3923 4923 2 
823 3886 2912 3 
824 3390 4412 3 
825 3390 3389 1 
826 2912 2911 1 
827 2911 4131 2 
828 5144 5143 1 
829 4852 4394 3 
830 4852 4851 1 
831 5410 4406 3 
832 5410 5409 1 
833 4374 4852 3 
834 4374 4373 1 
835 4374 4394 3 
836 4374 4398 3 
837 4398 4852 3 
838 4398 4397 1 
839 4932 5410 3 
840 4932 4931 1 
841 4406 4932 3 
842 4406 4405 1 
843 4394 4398 3 
844 4394 4393 1 
845 5154 5144 3 
846 4678 4677 1 
847 4851 4881 2 
848 5910 5624 3 
849 5910 5909 1 
850 5910 5916 3 
851 5624 5128 3 
852 5624 5623 1 
853 5128 5916 3 
854 5128 5127 1 
855 5128 5910 3 
856 5916 5624 3 
857 5916 5915 1 
858 121 123 2 
859 1133 1134 1 
860 1133 6121 2 
861 1151 6159 2 
862 1144 1430 3 
863 1144 1143 1 
864 1430 622 3 
865 1430 1429 1 
866 622 1144 3 
867 622 621 1 
868 953 1623 2 
869 2661 2667 2 
870 2662 2648 3 
871 2662 2661 1 
872 1853 1854 1 
873 1853 2155 2 
874 2154 2898 3 
875 2154 2153 1 
876 2898 2652 3 
877 2898 2897 1 
878 2652 2154 3 
879 2652 2651 1 
880 2920 2430 3 
881 2872 2402 3 
882 2872 2871 1 
883 2655 3151 2 
884 2641 3177 2 
885 3177 3178 1 
886 2914 4142 3 
887 2914 2913 1 
888 4142 3900 3 
889 4142 4141 1 
890 3900 2914 3 
891 3900 3899 1 
892 3666 3906 3 
893 3666 3665 1 
894 3906 3164 3 
895 3906 3905 1 
896 3665 4147 2 
897 3663 3899 2 
898 3670 3914 3 
899 3670 3669 1 
900 3914 3404 3 
901 3914 3913 1 
902 4134 4133 1 
903 3404 3670 3 
904 3404 3403 1 
905 3404 3908 3 
906 3677 4149 2 
907 3908 3670 3 
908 3908 3907 1 
909 3908 3914 3 
910 3378 4134 3 
911 4412 4154 3 
912 4412 4411 1 
913 4154 3390 3 
914 4154 4153 1 
915 5409 5427 2 
916 5394 4678 3 
917 4893 5153 2 
918 5153 5154 1 
919 4399 5617 2 
920 4662 5396 3 
921 4662 4661 1 
922 4662 4676 3 
923 4662 5148 3 
924 4676 5396 3 
925 4676 4675 1 
926 5396 5148 3 
927 5396 5395 1 
928 3893 3894 1 
929 3893 4865 2 
930 403 5389 2 
931 5623 5895 2 
932 122 5392 3 
933 122 121 1 
934 5392 6168 3 
935 5392 5391 1 
936 6168 122 3 
937 6168 6167 1 
938 5378 5898 3 
939 5378 5377 1 
940 1164 6204 3 
941 6204 6203 1 
942 171 5649 2 
943 1152 656 3 
944 1152 1151 1 
945 701 1173 2 
946 422 1152 3 
947 422 421 1 
948 656 422 3 
949 656 655 1 
950 656 934 3 
951 934 422 3 
952 934 933 1 
953 934 1152 3 
954 1174 1208 3 
955 1174 1173 1 
956 1174 1182 3 
957 1182 954 3 
958 1182 1181 1 
959 1208 1182 3 
960 1208 1207 1 
961 954 1208 3 
962 954 953 1 
963 954 1174 3 
964 1922 1894 3 
965 1922 1921 1 
966 1894 1700 3 
967 1894 1893 1 
968 1700 1922 3 
969 1700 1699 1 
970 1166 1700 3 
971 1166 1165 1 
972 1166 1922 3 
973 1166 1894 3 
974 1436 2448 3 
975 2448 2447 1 
976 2200 1902 3 
977 2200 2199 1 
978 2200 2404 3 
979 1936 2200 3 
980 1936 1935 1 
981 1936 2404 3 
982 1902 1936 3 
983 1902 1901 1 
984 2404 1902 3 
985 2404 2403 1 
986 3170 2908 3 
987 3170 3169 1 
988 2908 2664 3 
989 2908 2907 1 
990 2664 3170 3 
991 2664 2663 1 
992 2933 3649 2 
993 3174 2656 3 
994 3174 3173 1 
995 3174 3680 3 
996 2934 3174 3 
997 2934 2933 1 
998 2656 2934 3 
999 2656 2655 1 
1000 2656 3680 3 
1001 3680 2934 3 
1002 3680 3679 1 
1003 3163 3173 2 
1004 3388 3906 3 
1005 3388 3387 1 
1006 3388 3666 3 
1007 3164 3666 3 
1008 3164 3163 1 
1009 3164 3388 3 
1010 3413 3669 2 
1011 5618 4652 3 
1012 5618 5617 1 
1013 5440 5940 3 
1014 5440 5439 1 
1015 5440 5914 3 
1016 5162 5940 3 
1017 5162 5161 1 
1018 5162 5440 3 
1019 5940 5914 3 
1020 5940 5939 1 
1021 5914 5162 3 
1022 5914 5913 1 
1023 5419 5939 2 
1024 5654 5692 3 
1025 5654 5653 1 
1026 5390 5654 3 
1027 5390 5389 1 
1028 5692 5390 3 
1029 5692 5691 1 
1030 5426 5184 3 
1031 5184 5183 1 
1032 5896 5378 3 
1033 5896 5895 1 
1034 5660 5956 3 
1035 5660 5659 1 
1036 5956 5444 3 
1037 5956 5955 1 
1038 5444 5660 3 
1039 5444 5443 1 
1040 5397 5885 2 
1041 5650 5658 3 
1042 5650 5649 1 
1043 5398 420 3 
1044 5398 5397 1 
1045 5398 5650 3 
1046 5398 5658 3 
1047 689 893 2 
1048 914 674 3 
1049 914 913 1 
1050 172 914 3 
1051 172 171 1 
1052 172 430 3 
1053 172 674 3 
1054 674 430 3 
1055 674 673 1 
1056 430 914 3 
1057 430 429 1 
1058 214 213 1 
1059 673 951 2 
1060 452 214 3 
1061 193 6195 2 
1062 405 913 2 
1063 6214 440 3 
1064 692 702 3 
1065 692 691 1 
1066 692 952 3 
1067 440 439 1 
1068 952 460 3 
1069 952 951 1 
1070 655 6213 2 
1071 460 702 3 
1072 460 459 1 
1073 460 692 3 
1074 702 952 3 
1075 702 701 1 
1076 6213 6214 1 
1077 657 683 2 
1078 1181 1191 2 
1079 937 1207 2 
1080 937 938 1 
1081 1935 2927 2 
1082 2927 2928 1 
1083 2198 2684 3 
1084 2198 2197 1 
1085 3392 2198 3 
1086 3392 3391 1 
1087 2684 2902 3 
1088 2684 2683 1 
1089 2684 3392 3 
1090 2902 2198 3 
1091 2902 2901 1 
1092 2902 3392 3 
1093 2197 2691 2 
1094 2192 3186 3 
1095 2192 2191 1 
1096 2192 2674 3 
1097 2670 2192 3 
1098 2670 2669 1 
1099 2670 2674 3 
1100 3186 2670 3 
1101 3186 3185 1 
1102 2674 3186 3 
1103 2674 2673 1 
1104 2422 2688 3 
1105 2422 2421 1 
1106 2159 2421 2 
1107 2159 2160 1 
1108 2722 2422 3 
1109 2722 2721 1 
1110 2688 2722 3 
1111 2688 2687 1 
1112 2900 2899 1 
1113 3402 2900 3 
1114 2899 3673 2 
1115 3172 3674 3 
1116 3674 3673 1 
1117 4916 4950 3 
1118 4950 4949 1 
1119 4458 4457 1 
1120 4444 4458 3 
1121 4423 4961 2 
1122 3707 3708 1 
1123 4914 3938 3 
1124 4914 4913 1 
1125 4914 5160 3 
1126 5160 4414 3 
1127 5160 5159 1 
1128 4414 4914 3 
1129 4414 4413 1 
1130 5166 4390 3 
1131 5166 5165 1 
1132 4390 5370 3 
1133 4390 4389 1 
1134 4390 5416 3 
1135 5370 5166 3 
1136 5370 5369 1 
1137 5370 5416 3 
1138 5416 5166 3 
1139 5416 5415 1 
1140 5437 5913 2 
1141 5183 5453 2 
1142 6217 6218 1 
1143 5420 5886 3 
1144 5420 5419 1 
1145 5886 5698 3 
1146 5886 5885 1 
1147 5698 5420 3 
1148 5698 5697 1 
1149 894 670 3 
1150 894 893 1 
1151 1178 894 3 
1152 1178 1177 1 
1153 670 1178 3 
1154 670 669 1 
1155 730 729 1 
1156 194 193 1 
1157 196 194 3 
1158 197 449 2 
1159 693 1177 2 
1160 5994 730 3 
1161 6195 6196 1 
1162 5993 5994 1 
1163 669 945 2 
1164 406 405 1 
1165 451 452 1 
1166 451 5993 2 
1167 6196 406 3 
1168 687 1179 2 
1169 946 448 3 
1170 946 945 1 
1171 672 936 3 
1172 672 671 1 
1173 672 710 3 
1174 682 672 3 
1175 682 681 1 
1176 682 710 3 
1177 710 936 3 
1178 710 709 1 
1179 936 682 3 
1180 936 935 1 
1181 671 921 2 
1182 1663 1664 1 
1183 1663 2721 2 
1184 3945 4671 2 
1185 3459 3957 2 
1186 4220 4672 3 
1187 4672 4671 1 
1188 4164 4450 3 
1189 4450 4449 1 
1190 3429 3693 2 
1191 3430 3930 3 
1192 3430 3429 1 
1193 4166 3430 3 
1194 4166 4165 1 
1195 4685 4686 1 
1196 3930 4166 3 
1197 3930 3929 1 
1198 4698 4448 3 
1199 4698 4697 1 
1200 4913 5165 2 
1201 4683 4945 2 
1202 5954 4980 3 
1203 5954 5953 1 
1204 6218 424 3 
1205 424 423 1 
1206 6174 5206 3 
1207 6174 6173 1 
1208 5964 6174 3 
1209 5964 5963 1 
1210 5960 450 3 
1211 5960 5959 1 
1212 450 6198 3 
1213 450 449 1 
1214 6198 5960 3 
1215 6198 6197 1 
1216 427 428 1 
1217 694 693 1 
1218 428 694 3 
1219 458 436 3 
1220 458 457 1 
1221 436 1180 3 
1222 436 435 1 
1223 1180 458 3 
1224 1180 1179 1 
1225 457 6199 2 
1226 709 1461 2 
1227 1213 1719 2 
1228 2172 1966 3 
1229 1966 1965 1 
1230 2445 2446 1 
1231 2445 3207 2 
1232 2446 2930 3 
1233 2446 3458 3 
1234 2446 3190 3 
1235 2703 4201 2 
1236 3958 3946 3 
1237 3958 3957 1 
1238 3946 3450 3 
1239 3946 3945 1 
1240 3450 3958 3 
1241 3450 3449 1 
1242 4202 3462 3 
1243 4202 4201 1 
1244 4202 4436 3 
1245 2948 3958 3 
1246 2948 2947 1 
1247 2948 3450 3 
1248 2948 3946 3 
1249 3719 3931 2 
1250 4163 4164 1 
1251 3939 4163 2 
1252 4956 3932 3 
1253 4956 4955 1 
1254 3694 4956 3 
1255 3694 3693 1 
1256 3694 3934 3 
1257 3694 3932 3 
1258 3934 4956 3 
1259 3934 3933 1 
1260 3932 3934 3 
1261 3932 3931 1 
1262 4448 4210 3 
1263 4448 4447 1 
1264 4209 5451 2 
1265 4210 4698 3 
1266 4210 4209 1 
1267 4710 4709 1 
1268 5190 4708 3 
1269 5190 5189 1 
1270 4946 5190 3 
1271 4946 4945 1 
1272 4980 5900 3 
1273 4980 4979 1 
1274 5938 5964 3 
1275 5938 5937 1 
1276 5938 6174 3 
1277 5206 5964 3 
1278 5206 5205 1 
1279 5206 5938 3 
1280 5484 5483 1 
1281 5972 5484 3 
1282 5967 6173 2 
1283 6220 6219 1 
1284 454 6192 3 
1285 454 453 1 
1286 228 6220 3 
1287 6197 6219 2 
1288 432 454 3 
1289 432 431 1 
1290 715 716 1 
1291 715 5959 2 
1292 976 1444 3 
1293 976 975 1 
1294 976 1010 3 
1295 975 1467 2 
1296 6200 472 3 
1297 6200 6199 1 
1298 238 237 1 
1299 472 216 3 
1300 472 471 1 
1301 472 1714 3 
1302 1462 1496 3 
1303 1462 1461 1 
1304 1480 1462 3 
1305 1480 1479 1 
1306 1496 1480 3 
1307 1496 1495 1 
1308 216 6200 3 
1309 216 215 1 
1310 216 1714 3 
1311 1217 1941 2 
1312 1720 1719 1 
1313 1720 2206 3 
1314 1942 1964 3 
1315 1942 1941 1 
1316 1942 2206 3 
1317 1964 1720 3 
1318 1964 1963 1 
1319 1964 2206 3 
1320 1486 2236 3 
1321 1486 1485 1 
1322 1486 2730 3 
1323 1486 1736 3 
1324 1204 1684 3 
1325 1204 1203 1 
1326 1684 1716 3 
1327 1684 1683 1 
1328 1716 1204 3 
1329 1716 1715 1 
1330 3979 3983 2 
1331 3980 3979 1 
1332 3474 3980 3 
1333 3421 3422 1 
1334 3421 3711 2 
1335 3933 3959 2 
1336 4969 4987 2 
1337 4203 4205 2 
1338 3761 5441 2 
1339 5441 5442 1 
1340 5202 4710 3 
1341 5678 5677 1 
1342 5718 5678 3 
1343 5463 5937 2 
1344 465 6239 2 
1345 5464 232 3 
1346 5464 5463 1 
1347 466 5464 3 
1348 466 465 1 
1349 705 6191 2 
1350 6192 432 3 
1351 6192 6191 1 
1352 731 749 2 
1353 987 988 1 
1354 987 6229 2 
1355 1467 1468 1 
1356 699 1215 2 
1357 2236 1736 3 
1358 2236 2235 1 
1359 1459 1709 2 
1360 2730 2236 3 
1361 2730 2729 1 
1362 1736 2730 3 
1363 1736 1735 1 
1364 1460 2216 3 
1365 1460 1459 1 
1366 1460 2462 3 
1367 1976 1946 3 
1368 3465 3749 2 
1369 3466 3762 3 
1370 3466 3465 1 
1371 4260 4480 3 
1372 4260 4259 1 
1373 4970 4260 3 
1374 4970 4969 1 
1375 3762 4464 3 
1376 3762 3761 1 
1377 4464 3466 3 
1378 4464 4463 1 
1379 3774 4260 3 
1380 3774 3773 1 
1381 3774 4970 3 
1382 3774 4480 3 
1383 4016 4232 3 
1384 5510 3752 3 
1385 5510 5509 1 
1386 4733 4734 1 
1387 4733 5025 2 
1388 3752 4978 3 
1389 3752 3751 1 
1390 4978 5510 3 
1391 4978 4977 1 
1392 5246 5248 3 
1393 5248 5247 1 
1394 232 466 3 
1395 232 231 1 
1396 231 5973 2 
1397 5182 4960 3 
1398 4960 4959 1 
1399 971 972 1 
1400 463 971 2 
1401 508 254 3 
1402 508 507 1 
1403 508 6026 3 
1404 5982 508 3 
1405 5982 5981 1 
1406 45 5999 2 
1407 45 46 1 
1408 750 734 3 
1409 750 749 1 
1410 476 972 3 
1411 476 750 3 
1412 734 1004 3 
1413 734 733 1 
1414 734 972 3 
1415 260 259 1 
1416 260 476 3 
1417 972 1004 3 
1418 1004 750 3 
1419 1004 1003 1 
1420 988 260 3 
1421 1468 1726 3 
1422 990 738 3 
1423 990 989 1 
1424 990 1196 3 
1425 966 738 3 
1426 966 965 1 
1427 966 990 3 
1428 1196 966 3 
1429 1196 1195 1 
1430 738 1196 3 
1431 738 737 1 
1432 1993 1994 1 
1433 1993 2729 2 
1434 2229 2230 1 
1435 1253 1981 2 
1436 1729 2229 2 
1437 2230 2462 3 
1438 2216 1982 3 
1439 2216 2215 1 
1440 2216 2230 3 
1441 1982 1460 3 
1442 1982 1981 1 
1443 1982 2462 3 
1444 3773 4747 2 
1445 4259 4721 2 
1446 4232 4231 1 
1447 4284 5222 3 
1448 4284 4283 1 
1449 4284 4722 3 
1450 4284 4990 3 
1451 4231 4751 2 
1452 4479 4713 2 
1453 4722 4990 3 
1454 4722 4721 1 
1455 4223 4224 1 
1456 4223 4757 2 
1457 4508 4507 1 
1458 5233 5509 2 
1459 4252 4508 3 
1460 4280 4522 3 
1461 4280 4279 1 
1462 4280 5506 3 
1463 4522 5026 3 
1464 4522 4521 1 
1465 4522 5506 3 
1466 5247 5497 2 
1467 5497 5498 1 
1468 13 229 2 
1469 5974 226 3 
1470 5974 5973 1 
1471 226 236 3 
1472 226 225 1 
1473 242 5974 3 
1474 242 226 3 
1475 242 241 1 
1476 6238 6250 3 
1477 6238 6237 1 
1478 254 5982 3 
1479 254 253 1 
1480 254 6026 3 
1481 438 6238 3 
1482 438 437 1 
1483 438 504 3 
1484 438 6250 3 
1485 504 6238 3 
1486 504 503 1 
1487 6250 504 3 
1488 6250 6249 1 
1489 5731 5732 1 
1490 6026 5982 3 
1491 6026 6025 1 
1492 241 5709 2 
1493 5709 5710 1 
1494 5732 266 3 
1495 266 265 1 
1496 5981 6007 2 
1497 46 5730 3 
1498 5730 5729 1 
1499 475 476 1 
1500 259 753 2 
1501 5 733 2 
1502 753 754 1 
1503 234 233 1 
1504 506 234 3 
1505 6052 748 3 
1506 754 756 3 
1507 1484 1762 3 
1508 1484 1483 1 
1509 756 755 1 
1510 2242 2224 3 
1511 2242 2241 1 
1512 2224 2972 3 
1513 2224 2223 1 
1514 2972 2242 3 
1515 2972 2971 1 
1516 2223 3447 2 
1517 3798 3812 3 
1518 3798 3797 1 
1519 3812 3016 3 
1520 3812 3811 1 
1521 3016 3798 3 
1522 3016 3015 1 
1523 3512 3526 3 
1524 3526 3525 1 
1525 4530 4462 3 
1526 4530 4529 1 
1527 4002 4462 3 
1528 4002 4001 1 
1529 4002 4530 3 
1530 4002 4748 3 
1531 4748 4530 3 
1532 4748 4747 1 
1533 4462 4748 3 
1534 4462 4461 1 
1535 4758 4724 3 
1536 4990 5222 3 
1537 4990 4989 1 
1538 4724 4723 1 
1539 4235 4236 1 
1540 4235 4461 2 
1541 4757 4758 1 
1542 5222 4722 3 
1543 5222 5221 1 
1544 4755 5501 2 
1545 14 6228 3 
1546 14 13 1 
1547 14 6226 3 
1548 5752 5751 1 
1549 6226 5480 3 
1550 6226 6225 1 
1551 6226 6228 3 
1552 5480 14 3 
1553 5480 5479 1 
1554 6228 5480 3 
1555 6228 6227 1 
1556 236 242 3 
1557 236 5974 3 
1558 236 235 1 
1559 5282 5752 3 
1560 489 519 2 
1561 490 5754 3 
1562 490 489 1 
1563 5518 490 3 
1564 5518 5517 1 
1565 764 310 3 
1566 487 6041 2 
1567 1012 782 3 
1568 1012 1011 1 
1569 1012 1030 3 
1570 1012 1276 3 
1571 1030 782 3 
1572 1030 1029 1 
1573 782 1276 3 
1574 782 781 1 
1575 1276 1030 3 
1576 1276 1275 1 
1577 6001 6002 1 
1578 6001 6009 2 
1579 1011 1483 2 
1580 310 309 1 
1581 6051 6052 1 
1582 1024 1023 1 
1583 515 516 1 
1584 515 1263 2 
1585 268 1024 3 
1586 1239 1240 1 
1587 3 747 2 
1588 485 1239 2 
1589 509 1243 2 
1590 4 1500 3 
1591 4 3 1 
1592 4 1750 3 
1593 4 1524 3 
1594 1500 1524 3 
1595 1500 1499 1 
1596 974 714 3 
1597 974 973 1 
1598 974 1264 3 
1599 974 1756 3 
1600 1264 1756 3 
1601 1264 1263 1 
1602 1756 714 3 
1603 1756 1755 1 
1604 714 1264 3 
1605 714 713 1 
1606 1524 1750 3 
1607 1524 1523 1 
1608 1259 1269 2 
1609 1242 1738 3 
1610 1242 1241 1 
1611 510 766 3 
1612 510 509 1 
1613 492 766 3 
1614 492 491 1 
1615 492 510 3 
1616 1750 1500 3 
1617 1750 1749 1 
1618 1002 1020 3 
1619 1002 1001 1 
1620 1002 1758 3 
1621 1270 1269 1 
1622 1770 1270 3 
1623 1256 1250 3 
1624 1256 1255 1 
1625 1769 1770 1 
1626 1724 1748 3 
1627 1724 1723 1 
1628 1724 2012 3 
1629 1748 1766 3 
1630 1748 1747 1 
1631 2012 1748 3 
1632 2012 2011 1 
1633 1766 1724 3 
1634 1766 1765 1 
1635 1766 2012 3 
1636 1279 2019 2 
1637 1008 1280 3 
1638 1008 1007 1 
1639 1008 1508 3 
1640 1280 1786 3 
1641 1280 1279 1 
1642 1751 2769 2 
1643 1723 2253 2 
1644 2253 2254 1 
1645 2011 2741 2 
1646 2507 2755 2 
1647 1752 1751 1 
1648 2269 2981 2 
1649 2280 2279 1 
1650 2280 2492 3 
1651 2280 2786 3 
1652 1518 2492 3 
1653 1518 2254 3 
1654 1518 2786 3 
1655 2496 2536 3 
1656 2536 2535 1 
1657 2018 2508 3 
1658 2018 2017 1 
1659 2018 2754 3 
1660 2251 2489 2 
1661 2535 3001 2 
1662 2791 3267 2 
1663 2778 3006 3 
1664 2778 2777 1 
1665 2518 3262 3 
1666 2518 2517 1 
1667 2518 3788 3 
1668 2262 3262 3 
1669 2262 2261 1 
1670 2262 2518 3 
1671 3002 2778 3 
1672 3002 3001 1 
1673 3002 3006 3 
1674 3006 2992 3 
1675 3006 3005 1 
1676 2992 2778 3 
1677 2992 2991 1 
1678 2992 3002 3 
1679 3029 4023 2 
1680 2490 2248 3 
1681 2490 2489 1 
1682 2490 3448 3 
1683 3546 3026 3 
1684 3546 3545 1 
1685 2301 2302 1 
1686 2301 2797 2 
1687 2248 3012 3 
1688 2248 2247 1 
1689 2248 3448 3 
1690 3303 3304 1 
1691 4024 4023 1 
1692 3004 3030 3 
1693 3004 3003 1 
1694 3030 3756 3 
1695 3030 3029 1 
1696 3030 3278 3 
1697 3278 4258 3 
1698 3278 3522 3 
1699 3522 3521 1 
1700 4258 3522 3 
1701 3277 3278 1 
1702 3543 3811 2 
1703 3759 3767 2 
1704 3544 4046 3 
1705 3544 3543 1 
1706 4017 4285 2 
1707 4504 4018 3 
1708 4504 4503 1 
1709 4504 4726 3 
1710 4018 3506 3 
1711 4018 4017 1 
1712 4018 4726 3 
1713 3766 3744 3 
1714 3766 3765 1 
1715 3766 4290 3 
1716 3744 4744 3 
1717 3744 3743 1 
1718 3744 4290 3 
1719 4744 3766 3 
1720 4744 4743 1 
1721 4290 4744 3 
1722 4290 4289 1 
1723 4749 4750 1 
1724 4749 5045 2 
1725 4509 4727 2 
1726 4488 5238 3 
1727 4488 4487 1 
1728 6246 4488 3 
1729 6246 6245 1 
1730 4515 4741 2 
1731 4243 4495 2 
1732 4999 5237 2 
1733 3772 4778 3 
1734 3772 3771 1 
1735 3772 4996 3 
1736 3772 4496 3 
1737 4496 4996 3 
1738 4496 4495 1 
1739 5489 5789 2 
1740 4996 4778 3 
1741 4996 4995 1 
1742 5242 4742 3 
1743 5242 5241 1 
1744 5984 5242 3 
1745 5984 5983 1 
1746 4762 5242 3 
1747 4762 4761 1 
1748 4762 5984 3 
1749 4489 4490 1 
1750 5763 6245 2 
1751 5000 4999 1 
1752 5508 4994 3 
1753 5244 5243 1 
1754 4994 4993 1 
1755 4736 5244 3 