ITEM: TIMESTEP
77440
ITEM: NUMBER OF ENTRIES
8011
ITEM: BOX BOUNDS pp pp ff
0.0000000000000000e+00 7.2168784000000002e+01
0.0000000000000000e+00 7.2168784000000002e+01
0.0000000000000000e+00 1.2000000000000000e+01
ITEM: ENTRIES index c_1[1] c_1[2] c_1[3]
1 248 12 3 
2 248 247 1 
3 6022 248 3 
4 6022 6021 1 
5 12 34 3 
6 12 11 1 
7 12 6022 3 
8 34 248 3 
9 34 33 1 
10 34 6022 3 
11 11 6051 2 
12 525 526 1 
13 244 243 1 
14 6051 6052 1 
15 6002 244 3 
16 269 270 1 
17 1024 1023 1 
18 6052 748 3 
19 268 1024 3 
20 748 747 1 
21 1769 1770 1 
22 1723 2253 2 
23 2253 2254 1 
24 1752 1751 1 
25 2525 2785 2 
26 2785 2786 1 
27 2792 3268 3 
28 2792 2791 1 
29 3268 2768 3 
30 3268 3267 1 
31 2768 2792 3 
32 2768 2767 1 
33 2223 3447 2 
34 2261 2771 2 
35 2518 3262 3 
36 2518 2517 1 
37 2518 3788 3 
38 3788 2262 3 
39 3788 3787 1 
40 3277 3278 1 
41 3543 3811 2 
42 3812 3016 3 
43 3812 3811 1 
44 4271 4743 2 
45 4245 4529 2 
46 6246 4488 3 
47 6246 6245 1 
48 4488 5238 3 
49 4488 4487 1 
50 5763 6245 2 
51 5244 5243 1 
52 5014 5502 3 
53 5502 5501 1 
54 5759 5760 1 
55 6019 6225 2 
56 6008 6224 3 
57 6008 6007 1 
58 6224 250 3 
59 6224 6223 1 
60 29 251 2 
61 30 6016 3 
62 30 29 1 
63 30 5516 3 
64 5516 6016 3 
65 5516 5515 1 
66 474 6014 3 
67 474 473 1 
68 6011 6021 2 
69 501 502 1 
70 33 501 2 
71 526 522 3 
72 526 1022 3 
73 536 1002 3 
74 536 535 1 
75 536 1758 3 
76 1758 1020 3 
77 1758 1757 1 
78 2486 2485 1 
79 2486 2774 3 
80 2002 2486 3 
81 2002 2774 3 
82 2271 2763 2 
83 2772 2530 3 
84 2772 2771 1 
85 4011 4012 1 
86 3992 3502 3 
87 3769 4503 2 
88 4270 4272 3 
89 4270 4269 1 
90 4270 4278 3 
91 4278 4266 3 
92 4278 4277 1 
93 4266 4272 3 
94 4266 4265 1 
95 4266 4270 3 
96 4526 4788 3 
97 4526 4525 1 
98 4246 4526 3 
99 4246 4245 1 
100 4246 4274 3 
101 4274 4788 3 
102 4274 4273 1 
103 4274 4526 3 
104 4020 4244 3 
105 4244 4243 1 
106 5277 5283 2 
107 5520 5496 3 
108 5520 5519 1 
109 5278 5520 3 
110 5278 5277 1 
111 5496 5278 3 
112 5496 5495 1 
113 5772 252 3 
114 5772 5771 1 
115 5768 5772 3 
116 5768 5767 1 
117 5768 6012 3 
118 6012 5772 3 
119 6012 6011 1 
120 5765 6013 2 
121 1067 1068 1 
122 1767 1768 1 
123 2511 2512 1 
124 2511 2767 2 
125 2038 2037 1 
126 3046 2038 3 
127 3502 3501 1 
128 4012 3770 3 
129 4517 4809 2 
130 4809 4810 1 
131 3770 3769 1 
132 4041 4265 2 
133 4525 4789 2 
134 17 18 1 
135 31 773 2 
136 5780 542 3 
137 5780 5779 1 
138 5780 6030 3 
139 1330 1329 1 
140 542 6030 3 
141 542 541 1 
142 5540 542 3 
143 5540 5539 1 
144 5540 5780 3 
145 6030 5540 3 
146 6030 6029 1 
147 554 546 3 
148 554 553 1 
149 554 1068 3 
150 792 554 3 
151 792 791 1 
152 792 1068 3 
153 1278 1268 3 
154 1278 1277 1 
155 1278 1760 3 
156 1278 1536 3 
157 1536 1268 3 
158 1536 1535 1 
159 1760 1536 3 
160 1760 1759 1 
161 1268 1760 3 
162 1268 1267 1 
163 2284 1778 3 
164 2284 2283 1 
165 2563 2817 2 
166 2551 2552 1 
167 3784 3783 1 
168 2552 3784 3 
169 3292 3310 3 
170 3292 3291 1 
171 3792 3292 3 
172 3792 3791 1 
173 3310 3792 3 
174 3310 3309 1 
175 3031 3309 2 
176 3804 4052 3 
177 4052 4051 1 
178 4052 3312 3 
179 3312 3311 1 
180 3312 3804 3 
181 4316 4790 3 
182 4790 4789 1 
183 5261 5987 2 
184 5788 5787 1 
185 18 5788 3 
186 562 300 3 
187 562 561 1 
188 76 562 3 
189 76 75 1 
190 20 1330 3 
191 70 798 3 
192 70 69 1 
193 70 72 3 
194 314 70 3 
195 314 313 1 
196 72 314 3 
197 72 71 1 
198 72 798 3 
199 798 314 3 
200 798 797 1 
201 289 1759 2 
202 1551 1552 1 
203 1792 2308 3 
204 1792 1791 1 
205 1542 1792 3 
206 1542 1541 1 
207 1542 2308 3 
208 2308 1290 3 
209 2308 2307 1 
210 1290 1792 3 
211 1290 1289 1 
212 1290 1542 3 
213 1539 1791 2 
214 1301 1569 2 
215 1334 2054 3 
216 1334 1333 1 
217 1824 1800 3 
218 1824 1823 1 
219 2054 2332 3 
220 2054 2053 1 
221 2332 1334 3 
222 2332 2331 1 
223 1796 2564 3 
224 1796 1795 1 
225 1796 2776 3 
226 1796 2044 3 
227 1795 2053 2 
228 2328 2574 3 
229 2328 2327 1 
230 2564 2776 3 
231 2564 2563 1 
232 2776 2044 3 
233 2776 2775 1 
234 2044 2564 3 
235 2044 2043 1 
236 3291 3299 2 
237 3563 3831 2 
238 4768 4767 1 
239 4568 4768 3 
240 5814 5302 3 
241 5814 5813 1 
242 5044 5814 3 
243 5044 5043 1 
244 5043 5317 2 
245 5318 5317 1 
246 300 76 3 
247 300 299 1 
248 300 324 3 
249 324 76 3 
250 324 323 1 
251 324 562 3 
252 75 6093 2 
253 329 330 1 
254 329 561 2 
255 5805 6043 2 
256 1552 1808 3 
257 1808 1807 1 
258 2599 2600 1 
259 1313 1807 2 
260 2292 1824 3 
261 2292 2291 1 
262 1333 2307 2 
263 1540 1572 3 
264 1540 1539 1 
265 1572 1302 3 
266 1572 1571 1 
267 1302 1540 3 
268 1302 1301 1 
269 1064 1572 3 
270 1064 1063 1 
271 1064 1540 3 
272 1064 1302 3 
273 1314 1313 1 
274 2581 2582 1 
275 2291 2353 2 
276 2353 2354 1 
277 1799 2069 2 
278 1063 1817 2 
279 2322 1576 3 
280 2322 2321 1 
281 3073 2843 2 
282 2822 3280 3 
283 2822 2821 1 
284 3300 2822 3 
285 3300 3299 1 
286 3280 3300 3 
287 3280 3279 1 
288 2036 2035 1 
289 2810 2036 3 
290 3588 2840 3 
291 3588 3587 1 
292 3067 3321 2 
293 3776 3332 3 
294 3776 3775 1 
295 3776 4086 3 
296 3331 3567 2 
297 4291 4587 2 
298 4816 4310 3 
299 4310 4309 1 
300 5596 5812 3 
301 5596 5595 1 
302 5082 5786 3 
303 5082 5081 1 
304 5082 5596 3 
305 5082 5812 3 
306 5302 5044 3 
307 5302 5301 1 
308 5812 5786 3 
309 5812 5811 1 
310 5819 6083 2 
311 5838 5837 1 
312 5822 5838 3 
313 5559 6053 2 
314 345 575 2 
315 1076 68 3 
316 1076 1075 1 
317 826 1076 3 
318 826 825 1 
319 571 1559 2 
320 1560 1078 3 
321 1560 1559 1 
322 1078 844 3 
323 1078 1077 1 
324 844 1560 3 
325 844 843 1 
326 1074 828 3 
327 1074 1073 1 
328 817 2319 2 
329 2354 2582 3 
330 2354 3038 3 
331 1790 2058 3 
332 1790 1789 1 
333 1790 2354 3 
334 3038 3037 1 
335 2582 2824 3 
336 2824 3038 3 
337 2070 2069 1 
338 2070 3352 3 
339 2046 2312 3 
340 2046 2582 3 
341 2058 2306 3 
342 2058 2057 1 
343 2058 3352 3 
344 2306 1790 3 
345 2306 2305 1 
346 2306 3352 3 
347 2312 2311 1 
348 1826 2070 3 
349 1825 1845 2 
350 1825 1826 1 
351 1845 1846 1 
352 3037 3095 2 
353 2305 2549 2 
354 1846 2580 3 
355 2580 2579 1 
356 2794 3554 3 
357 2794 2793 1 
358 3554 2820 3 
359 3554 3553 1 
360 2820 2794 3 
361 2820 2819 1 
362 2330 2594 3 
363 2330 2329 1 
364 2594 3056 3 
365 2594 2593 1 
366 3056 2330 3 
367 3056 3055 1 
368 2035 3587 2 
369 2570 3060 3 
370 2570 2569 1 
371 2570 2838 3 
372 3596 3584 3 
373 3584 3583 1 
374 3830 3324 3 
375 3830 3829 1 
376 3848 3830 3 
377 3848 3847 1 
378 3324 3848 3 
379 3324 3323 1 
380 3822 4572 3 
381 3822 3821 1 
382 3822 4610 3 
383 3568 4058 3 
384 3568 3567 1 
385 3568 4300 3 
386 4058 4292 3 
387 4058 4057 1 
388 4292 3568 3 
389 4292 4291 1 
390 4292 4300 3 
391 4300 4058 3 
392 4300 4299 1 
393 3835 4057 2 
394 4544 4798 3 
395 4544 4543 1 
396 4340 4604 3 
397 4340 4339 1 
398 5052 5051 1 
399 5090 5052 3 
400 5083 5089 2 
401 5089 5090 1 
402 5816 74 3 
403 5816 5815 1 
404 74 6084 3 
405 74 73 1 
406 6084 5816 3 
407 6084 6083 1 
408 5610 74 3 
409 5610 5609 1 
410 5610 5816 3 
411 5610 6084 3 
412 5560 5808 3 
413 5560 5559 1 
414 5560 5794 3 
415 308 307 1 
416 564 563 1 
417 564 840 3 
418 840 839 1 
419 82 564 3 
420 82 840 3 
421 355 356 1 
422 337 355 2 
423 1077 1367 2 
424 841 843 2 
425 1367 1368 1 
426 1083 1563 2 
427 1104 1584 3 
428 1104 1103 1 
429 1348 1104 3 
430 1348 1347 1 
431 1584 1348 3 
432 1584 1583 1 
433 1084 842 3 
434 1084 1083 1 
435 842 1582 3 
436 842 841 1 
437 842 848 3 
438 2319 2320 1 
439 2320 1600 3 
440 2320 2368 3 
441 2064 2368 3 
442 2064 2120 3 
443 3351 3352 1 
444 2045 2046 1 
445 2045 3043 2 
446 2838 3060 3 
447 2838 2837 1 
448 2838 3328 3 
449 3328 2570 3 
450 3328 3327 1 
451 3060 3328 3 
452 3060 3059 1 
453 3600 3599 1 
454 3847 3829 2 
455 4092 3600 3 
456 4572 3850 3 
457 4572 4571 1 
458 3850 3822 3 
459 3850 3849 1 
460 3850 4610 3 
461 4610 4572 3 
462 4610 4609 1 
463 3833 4571 2 
464 3833 3834 1 
465 4601 4602 1 
466 3849 4601 2 
467 5346 4340 3 
468 5346 5345 1 
469 4853 4854 1 
470 5106 4580 3 
471 5106 5105 1 
472 5106 5376 3 
473 4580 5092 3 
474 4580 4579 1 
475 303 304 1 
476 303 5609 2 
477 115 857 2 
478 376 874 3 
479 81 82 1 
480 81 563 2 
481 839 1337 2 
482 1113 1573 2 
483 1573 1574 1 
484 1574 1586 3 
485 1574 1860 3 
486 1586 1585 1 
487 1342 1596 3 
488 1342 1860 3 
489 848 1368 3 
490 848 1586 3 
491 1368 1596 3 
492 1596 1595 1 
493 1336 1860 3 
494 1336 1596 3 
495 1336 1342 3 
496 1582 1084 3 
497 1582 1581 1 
498 1335 1336 1 
499 1335 1809 2 
500 1600 1599 1 
501 1600 2064 3 
502 1600 2368 3 
503 2090 2074 3 
504 2090 2089 1 
505 1812 1810 3 
506 1812 1811 1 
507 1812 2074 3 
508 1812 2090 3 
509 2074 1810 3 
510 2074 2073 1 
511 1810 2090 3 
512 1810 1809 1 
513 2063 2064 1 
514 2081 2089 2 
515 1811 2623 2 
516 2566 2565 1 
517 1819 2577 2 
518 1850 2566 3 
519 2082 2081 1 
520 2816 2082 3 
521 2815 2816 1 
522 3044 2828 3 
523 3044 3043 1 
524 2363 2861 2 
525 2096 2366 3 
526 2366 2365 1 
527 2364 2864 3 
528 2364 2363 1 
529 2364 2894 3 
530 2342 2864 3 
531 2342 2341 1 
532 2342 2364 3 
533 2864 2894 3 
534 2864 2863 1 
535 2894 2342 3 
536 2894 2893 1 
537 3092 3606 3 
538 3092 3091 1 
539 3606 3864 3 
540 3606 3605 1 
541 3864 3092 3 
542 3864 3863 1 
543 4117 4341 2 
544 3593 3863 2 
545 3594 3366 3 
546 3594 3593 1 
547 3366 3334 3 
548 3366 3365 1 
549 3366 4124 3 
550 4105 4609 2 
551 3334 3594 3 
552 3334 3333 1 
553 3334 4124 3 
554 2841 3333 2 
555 4124 3594 3 
556 4124 4123 1 
557 4106 2842 3 
558 4106 4105 1 
559 4106 4350 3 
560 2842 4350 3 
561 2842 2841 1 
562 4350 3088 3 
563 4350 4349 1 
564 3088 2842 3 
565 3088 3087 1 
566 3088 4106 3 
567 4856 4332 3 
568 4856 4855 1 
569 5092 5376 3 
570 5092 5091 1 
571 5092 5106 3 
572 5376 4580 3 
573 5376 5375 1 
574 5360 5120 3 
575 4599 4875 2 
576 4599 4600 1 
577 5118 6140 3 
578 5118 5117 1 
579 4868 6140 3 
580 4868 4867 1 
581 4868 5586 3 
582 4868 5118 3 
583 4600 4596 3 
584 4595 5093 2 
585 4596 4595 1 
586 5864 5863 1 
587 362 5864 3 
588 906 6144 3 
589 906 905 1 
590 5616 906 3 
591 5616 5615 1 
592 6144 6143 1 
593 5638 586 3 
594 5638 5637 1 
595 586 832 3 
596 586 585 1 
597 832 5638 3 
598 832 831 1 
599 1595 2099 2 
600 1605 1869 2 
601 1870 1852 3 
602 1870 1869 1 
603 2092 2128 3 
604 2092 2091 1 
605 2136 2092 3 
606 2136 2135 1 
607 1618 2128 3 
608 1618 1617 1 
609 1618 2092 3 
610 1618 2136 3 
611 2128 2136 3 
612 2128 2127 1 
613 1589 1849 2 
614 1849 1850 1 
615 2344 2850 3 
616 2344 2343 1 
617 2344 2608 3 
618 2624 2344 3 
619 2624 2623 1 
620 2608 2624 3 
621 2608 2607 1 
622 2608 2850 3 
623 2850 2624 3 
624 2850 2849 1 
625 1351 2127 2 
626 1867 1868 1 
627 1867 2371 2 
628 2825 3339 2 
629 1352 1820 3 
630 1352 1351 1 
631 1402 1352 3 
632 1402 1401 1 
633 1820 1402 3 
634 1820 1819 1 
635 3099 3100 1 
636 1857 3099 2 
637 3084 2826 3 
638 3084 3083 1 
639 2862 3084 3 
640 2862 2861 1 
641 2826 2862 3 
642 2826 2825 1 
643 2854 2853 1 
644 3100 2854 3 
645 2365 2595 2 
646 2595 2596 1 
647 2358 2870 3 
648 2870 2869 1 
649 3862 3624 3 
650 3624 3623 1 
651 3591 3592 1 
652 3111 3591 2 
653 3625 3626 1 
654 3625 3851 2 
655 4621 4627 2 
656 4324 4100 3 
657 4324 4323 1 
658 4324 4332 3 
659 4324 4856 3 
660 4100 4856 3 
661 4100 4099 1 
662 4375 4376 1 
663 4375 5375 2 
664 4383 4889 2 
665 4593 4594 1 
666 4593 5115 2 
667 4861 4879 2 
668 154 5818 3 
669 154 153 1 
670 361 362 1 
671 114 113 1 
672 852 851 1 
673 1080 852 3 
674 6119 6120 1 
675 1079 1080 1 
676 1079 1355 2 
677 603 851 2 
678 379 6113 2 
679 5597 5598 1 
680 5597 5637 2 
681 615 1431 2 
682 165 6143 2 
683 633 634 1 
684 1393 2123 2 
685 1852 1394 3 
686 1852 1851 1 
687 1394 1870 3 
688 1394 1393 1 
689 1590 2376 3 
690 1590 1589 1 
691 2376 1862 3 
692 2376 2375 1 
693 1862 1590 3 
694 1862 1861 1 
695 1132 3134 3 
696 1132 1131 1 
697 2372 1132 3 
698 2372 2371 1 
699 3134 2372 3 
700 3134 3133 1 
701 2856 1858 3 
702 2856 2855 1 
703 2856 3340 3 
704 3340 2616 3 
705 3340 3339 1 
706 1858 1857 1 
707 1858 3340 3 
708 1858 2616 3 
709 2616 2856 3 
710 2616 2615 1 
711 2116 2115 1 
712 2596 1848 3 
713 3379 3895 2 
714 3910 3909 1 
715 3135 3909 2 
716 3135 3136 1 
717 3124 2336 3 
718 3124 3123 1 
719 3124 3874 3 
720 3874 3884 3 
721 3874 3873 1 
722 4121 4607 2 
723 2336 3884 3 
724 2336 2335 1 
725 2336 3874 3 
726 3884 3124 3 
727 3884 3883 1 
728 2335 3123 2 
729 4119 4143 2 
730 5842 5841 1 
731 113 341 2 
732 6120 5842 3 
733 877 5875 2 
734 5858 5857 1 
735 5598 5858 3 
736 1356 1106 3 
737 1356 1355 1 
738 1432 1356 3 
739 1432 1431 1 
740 1106 1432 3 
741 1106 1105 1 
742 1105 1135 2 
743 1131 1139 2 
744 2903 3133 2 
745 2903 2904 1 
746 1363 3373 2 
747 2904 2390 3 
748 3162 3370 3 
749 3370 3369 1 
750 3369 3867 2 
751 3144 3376 3 
752 3144 3143 1 
753 4146 3144 3 
754 4146 4145 1 
755 3376 4146 3 
756 3376 3375 1 
757 3143 3641 2 
758 3136 2878 3 
759 2878 2877 1 
760 4127 4129 2 
761 3621 4421 2 
762 4369 4869 2 
763 5356 5122 3 
764 5356 5355 1 
765 4120 5356 3 
766 4120 4119 1 
767 5122 4120 3 
768 5122 5121 1 
769 5121 5143 2 
770 4864 4882 3 
771 4864 4863 1 
772 4864 5114 3 
773 4882 5114 3 
774 4882 4881 1 
775 4638 4882 3 
776 4638 4637 1 
777 4638 4864 3 
778 6114 390 3 
779 6114 6113 1 
780 102 6086 3 
781 102 101 1 
782 102 878 3 
783 342 102 3 
784 342 341 1 
785 342 878 3 
786 878 6086 3 
787 878 877 1 
788 6086 342 3 
789 6086 6085 1 
790 390 124 3 
791 390 389 1 
792 124 6114 3 
793 124 123 1 
794 124 128 3 
795 128 6114 3 
796 128 127 1 
797 128 390 3 
798 601 1661 2 
799 1898 1624 3 
800 1898 1897 1 
801 1624 1162 3 
802 1624 1623 1 
803 1624 1682 3 
804 1682 1162 3 
805 1682 1681 1 
806 1682 1898 3 
807 1162 1898 3 
808 1162 1161 1 
809 1650 1649 1 
810 1415 1416 1 
811 1415 2187 2 
812 2362 1642 3 
813 1140 1856 3 
814 1140 1139 1 
815 1140 2896 3 
816 1615 2111 2 
817 1896 1670 3 
818 1896 1895 1 
819 1896 2622 3 
820 1670 1364 3 
821 1670 1669 1 
822 1670 2622 3 
823 1364 1896 3 
824 1364 1363 1 
825 2622 1364 3 
826 2622 2621 1 
827 1635 2405 2 
828 2390 2389 1 
829 1895 2401 2 
830 3399 3667 2 
831 2888 2872 3 
832 2888 2887 1 
833 2402 2888 3 
834 2402 2401 1 
835 2872 2402 3 
836 2872 2871 1 
837 3668 2676 3 
838 3668 3667 1 
839 3161 4141 2 
840 3161 3162 1 
841 3923 4923 2 
842 4923 4924 1 
843 3622 3621 1 
844 4924 3622 3 
845 3403 4641 2 
846 2911 4131 2 
847 3889 3915 2 
848 4851 4881 2 
849 5144 5143 1 
850 4678 4677 1 
851 5154 5144 3 
852 5394 4678 3 
853 4877 4931 2 
854 5634 5432 3 
855 5634 5633 1 
856 5888 5634 3 
857 5888 5887 1 
858 121 123 2 
859 891 5903 2 
860 185 1161 2 
861 1662 1650 3 
862 953 1623 2 
863 1878 1616 3 
864 1616 1615 1 
865 1938 2662 3 
866 1938 1937 1 
867 2662 2648 3 
868 2662 2661 1 
869 2391 2631 2 
870 2648 1938 3 
871 2648 2647 1 
872 2871 2907 2 
873 2158 3400 3 
874 2158 2157 1 
875 2158 3408 3 
876 3400 2680 3 
877 3400 3399 1 
878 2641 3177 2 
879 3163 3173 2 
880 3174 2656 3 
881 3174 3173 1 
882 3174 3680 3 
883 2914 3900 3 
884 2914 2913 1 
885 2914 3178 3 
886 3178 3900 3 
887 3178 3177 1 
888 3178 4142 3 
889 3900 4142 3 
890 3900 3899 1 
891 4142 2914 3 
892 4142 4141 1 
893 3666 3906 3 
894 3666 3665 1 
895 2912 2911 1 
896 3886 2912 3 
897 5393 5394 1 
898 5409 5427 2 
899 4657 4658 1 
900 4657 5167 2 
901 4406 4932 3 
902 4406 4405 1 
903 4932 5410 3 
904 4932 4931 1 
905 5410 4406 3 
906 5410 5409 1 
907 4893 5153 2 
908 5153 5154 1 
909 4399 5617 2 
910 5161 5401 2 
911 403 5389 2 
912 5431 5653 2 
913 122 5392 3 
914 122 121 1 
915 5392 6168 3 
916 5392 5391 1 
917 6168 122 3 
918 6168 6167 1 
919 6204 6203 1 
920 171 5649 2 
921 655 6213 2 
922 6213 6214 1 
923 937 1207 2 
924 937 938 1 
925 701 1173 2 
926 1174 1208 3 
927 1174 1173 1 
928 1174 1182 3 
929 1182 954 3 
930 1182 1181 1 
931 1208 1182 3 
932 1208 1207 1 
933 954 1208 3 
934 954 953 1 
935 954 1174 3 
936 1922 1894 3 
937 1922 1921 1 
938 1700 1922 3 
939 1700 1699 1 
940 1166 1700 3 
941 1166 1165 1 
942 1166 1922 3 
943 1166 1894 3 
944 1181 1191 2 
945 1935 2927 2 
946 1936 2200 3 
947 1936 1935 1 
948 1936 2404 3 
949 1435 1436 1 
950 1435 2447 2 
951 1902 1936 3 
952 1902 1901 1 
953 2404 1902 3 
954 2404 2403 1 
955 2191 3185 2 
956 2656 2934 3 
957 2656 2655 1 
958 2656 3680 3 
959 2934 3174 3 
960 2934 2933 1 
961 3170 2908 3 
962 3170 3169 1 
963 3388 3906 3 
964 3388 3387 1 
965 3388 3666 3 
966 4430 4168 3 
967 4430 4429 1 
968 4430 4674 3 
969 4918 5192 3 
970 4918 4917 1 
971 4165 4673 2 
972 4894 4652 3 
973 4894 4893 1 
974 4894 5618 3 
975 5168 4894 3 
976 5168 5167 1 
977 5168 5618 3 
978 4652 5168 3 
979 4652 4651 1 
980 5618 4652 3 
981 5618 5617 1 
982 5162 5940 3 
983 5162 5161 1 
984 5162 5440 3 
985 5440 5940 3 
986 5440 5439 1 
987 5440 5914 3 
988 5940 5914 3 
989 5940 5939 1 
990 5914 5162 3 
991 5914 5913 1 
992 6167 6189 2 
993 5397 5885 2 
994 5650 5658 3 
995 5650 5649 1 
996 5658 420 3 
997 5658 5657 1 
998 5398 420 3 
999 5398 5397 1 
1000 5398 5650 3 
1001 5398 5658 3 
1002 420 5650 3 
1003 420 419 1 
1004 196 194 3 
1005 894 670 3 
1006 894 893 1 
1007 1178 894 3 
1008 1178 1177 1 
1009 172 914 3 
1010 172 171 1 
1011 172 430 3 
1012 172 674 3 
1013 670 1178 3 
1014 670 669 1 
1015 194 193 1 
1016 914 674 3 
1017 914 913 1 
1018 430 914 3 
1019 430 429 1 
1020 674 430 3 
1021 674 673 1 
1022 673 951 2 
1023 459 935 2 
1024 2448 2447 1 
1025 1436 2448 3 
1026 2673 3165 2 
1027 2198 2684 3 
1028 2198 2197 1 
1029 2684 2902 3 
1030 2684 2683 1 
1031 2684 3392 3 
1032 2902 2198 3 
1033 2902 2901 1 
1034 2902 3392 3 
1035 2197 2691 2 
1036 2192 3186 3 
1037 2192 2191 1 
1038 2192 2674 3 
1039 2670 2192 3 
1040 2670 2669 1 
1041 2670 2674 3 
1042 3186 2670 3 
1043 3186 3185 1 
1044 2674 3186 3 
1045 2674 2673 1 
1046 2422 2688 3 
1047 2422 2421 1 
1048 2722 2422 3 
1049 2722 2721 1 
1050 2688 2722 3 
1051 2688 2687 1 
1052 2899 3673 2 
1053 3674 3673 1 
1054 3172 3674 3 
1055 4172 3396 3 
1056 4172 4171 1 
1057 3912 4172 3 
1058 3912 3911 1 
1059 3438 3414 3 
1060 3438 3437 1 
1061 3414 3204 3 
1062 3414 3413 1 
1063 3204 3438 3 
1064 3204 3203 1 
1065 3396 3912 3 
1066 3396 3395 1 
1067 3460 3459 1 
1068 4167 4457 2 
1069 3430 3930 3 
1070 3430 3429 1 
1071 4166 3430 3 
1072 4166 4165 1 
1073 3930 4166 3 
1074 3930 3929 1 
1075 4697 5457 2 
1076 5457 5458 1 
1077 4913 5165 2 
1078 5166 4390 3 
1079 5166 5165 1 
1080 5370 5166 3 
1081 5370 5369 1 
1082 5370 5416 3 
1083 5183 5453 2 
1084 5698 5420 3 
1085 5698 5697 1 
1086 5660 5956 3 
1087 5660 5659 1 
1088 5420 5886 3 
1089 5420 5419 1 
1090 5886 5698 3 
1091 5886 5885 1 
1092 5454 6222 3 
1093 5454 5453 1 
1094 5671 5672 1 
1095 689 893 2 
1096 693 1177 2 
1097 5994 730 3 
1098 730 729 1 
1099 195 196 1 
1100 195 1383 2 
1101 193 6195 2 
1102 6195 6196 1 
1103 405 913 2 
1104 669 945 2 
1105 657 683 2 
1106 946 448 3 
1107 946 945 1 
1108 448 652 3 
1109 448 447 1 
1110 652 946 3 
1111 652 651 1 
1112 709 1461 2 
1113 672 936 3 
1114 672 671 1 
1115 672 710 3 
1116 682 672 3 
1117 682 681 1 
1118 682 710 3 
1119 710 936 3 
1120 710 709 1 
1121 936 682 3 
1122 936 935 1 
1123 671 921 2 
1124 1454 1453 1 
1125 1666 1454 3 
1126 3392 2198 3 
1127 3392 3391 1 
1128 3459 3957 2 
1129 3976 3460 3 
1130 3945 4671 2 
1131 4164 4450 3 
1132 4672 4671 1 
1133 4220 4672 3 
1134 4219 4693 2 
1135 4219 4220 1 
1136 4450 4449 1 
1137 4685 4686 1 
1138 3975 3976 1 
1139 3429 3693 2 
1140 4458 4457 1 
1141 4444 4458 3 
1142 4698 4448 3 
1143 4698 4697 1 
1144 4448 4210 3 
1145 4448 4447 1 
1146 4210 4698 3 
1147 4210 4209 1 
1148 5190 4708 3 
1149 5190 5189 1 
1150 4937 4938 1 
1151 4469 4470 1 
1152 4469 4703 2 
1153 4390 5370 3 
1154 4390 4389 1 
1155 4390 5416 3 
1156 5416 5166 3 
1157 5416 5415 1 
1158 6218 424 3 
1159 424 423 1 
1160 6217 6218 1 
1161 450 6198 3 
1162 450 449 1 
1163 6198 5960 3 
1164 6198 6197 1 
1165 694 693 1 
1166 428 694 3 
1167 5960 450 3 
1168 5960 5959 1 
1169 6196 406 3 
1170 406 405 1 
1171 458 436 3 
1172 458 457 1 
1173 1180 458 3 
1174 1180 1179 1 
1175 436 1180 3 
1176 436 435 1 
1177 451 452 1 
1178 451 5993 2 
1179 5993 5994 1 
1180 1218 1984 3 
1181 1218 1217 1 
1182 1984 2238 3 
1183 1984 1983 1 
1184 2238 1218 3 
1185 2238 2237 1 
1186 1712 1218 3 
1187 1712 1711 1 
1188 1712 1984 3 
1189 1712 2238 3 
1190 1213 1719 2 
1191 1966 1965 1 
1192 2172 1966 3 
1193 1663 1664 1 
1194 1663 2721 2 
1195 2445 2446 1 
1196 2445 3207 2 
1197 2948 3958 3 
1198 2948 2947 1 
1199 2948 3450 3 
1200 2948 3946 3 
1201 3958 3946 3 
1202 3958 3957 1 
1203 3946 3450 3 
1204 3946 3945 1 
1205 3409 3497 2 
1206 3450 3958 3 
1207 3450 3449 1 
1208 4163 4164 1 
1209 4956 3932 3 
1210 4956 4955 1 
1211 3694 4956 3 
1212 3694 3693 1 
1213 3694 3934 3 
1214 3694 3932 3 
1215 3934 4956 3 
1216 3934 3933 1 
1217 3932 3934 3 
1218 3932 3931 1 
1219 4710 4709 1 
1220 5202 4710 3 
1221 4209 5451 2 
1222 4708 4946 3 
1223 4708 4707 1 
1224 4946 5190 3 
1225 4946 4945 1 
1226 4447 5217 2 
1227 5678 5677 1 
1228 5463 5937 2 
1229 4704 4980 3 
1230 4704 4703 1 
1231 4704 5954 3 
1232 5938 5964 3 
1233 5938 5937 1 
1234 5938 6174 3 
1235 5206 5964 3 
1236 5206 5205 1 
1237 5206 5938 3 
1238 6174 5206 3 
1239 6174 6173 1 
1240 5964 6174 3 
1241 5964 5963 1 
1242 5967 6173 2 
1243 5972 5484 3 
1244 6197 6219 2 
1245 427 428 1 
1246 454 6192 3 
1247 454 453 1 
1248 432 454 3 
1249 432 431 1 
1250 6192 432 3 
1251 6192 6191 1 
1252 221 222 1 
1253 221 431 2 
1254 976 1444 3 
1255 976 975 1 
1256 976 1010 3 
1257 1010 1444 3 
1258 1010 1009 1 
1259 1444 700 3 
1260 1444 1443 1 
1261 457 6199 2 
1262 700 976 3 
1263 700 699 1 
1264 700 1010 3 
1265 1217 1941 2 
1266 1720 1719 1 
1267 1720 2206 3 
1268 2236 1736 3 
1269 2236 2235 1 
1270 1736 2730 3 
1271 1736 1735 1 
1272 2730 2236 3 
1273 2730 2729 1 
1274 1486 2236 3 
1275 1486 1485 1 
1276 1486 2730 3 
1277 1486 1736 3 
1278 1204 1684 3 
1279 1204 1203 1 
1280 1716 1204 3 
1281 1716 1715 1 
1282 1684 1716 3 
1283 1684 1683 1 
1284 1708 2212 3 
1285 1708 1707 1 
1286 2456 1708 3 
1287 2456 2455 1 
1288 2700 3472 3 
1289 2700 2699 1 
1290 2450 3208 3 
1291 2450 2449 1 
1292 3984 2450 3 
1293 3984 3983 1 
1294 3979 3983 2 
1295 3474 3980 3 
1296 2704 3424 3 
1297 2704 2703 1 
1298 2946 2704 3 
1299 2946 2945 1 
1300 2946 3226 3 
1301 3967 3977 2 
1302 3421 3422 1 
1303 3421 3711 2 
1304 3944 3714 3 
1305 3943 3944 1 
1306 3933 3959 2 
1307 3465 3749 2 
1308 3466 3762 3 
1309 3466 3465 1 
1310 4211 4465 2 
1311 4464 3466 3 
1312 4464 4463 1 
1313 5452 5200 3 
1314 5452 5451 1 
1315 3762 4464 3 
1316 3762 3761 1 
1317 3761 5441 2 
1318 4466 5452 3 
1319 4466 4465 1 
1320 5200 4466 3 
1321 5200 5199 1 
1322 5441 5442 1 
1323 5718 5678 3 
1324 466 5464 3 
1325 466 465 1 
1326 5464 232 3 
1327 5464 5463 1 
1328 232 466 3 
1329 232 231 1 
1330 705 6191 2 
1331 5181 5182 1 
1332 6238 6250 3 
1333 6238 6237 1 
1334 438 6238 3 
1335 438 437 1 
1336 438 504 3 
1337 438 6250 3 
1338 6250 504 3 
1339 6250 6249 1 
1340 504 6238 3 
1341 504 503 1 
1342 199 200 1 
1343 199 1443 2 
1344 987 988 1 
1345 987 6229 2 
1346 699 1215 2 
1347 1491 1735 2 
1348 1459 1709 2 
1349 1460 2216 3 
1350 1460 1459 1 
1351 1460 2462 3 
1352 2216 1982 3 
1353 2216 2215 1 
1354 2216 2230 3 
1355 2212 2456 3 
1356 2212 2211 1 
1357 2460 2700 3 
1358 2460 2459 1 
1359 2232 2460 3 
1360 2232 2231 1 
1361 2232 2700 3 
1362 2232 3472 3 
1363 3472 2460 3 
1364 3472 3471 1 
1365 3980 3979 1 
1366 4208 4198 3 
1367 4208 4207 1 
1368 4198 3960 3 
1369 4198 4197 1 
1370 3485 3507 2 
1371 3485 3486 1 
1372 4203 4205 2 
1373 4970 4260 3 
1374 4970 4969 1 
1375 4480 4970 3 
1376 4480 4479 1 
1377 3774 4260 3 
1378 3774 3773 1 
1379 3774 4970 3 
1380 3774 4480 3 
1381 3486 3244 3 
1382 3244 3243 1 
1383 4260 4480 3 
1384 4260 4259 1 
1385 4969 4987 2 
1386 4479 4713 2 
1387 4252 4508 3 
1388 4508 4507 1 
1389 4714 4982 3 
1390 4714 4713 1 
1391 4982 4992 3 
1392 4982 4981 1 
1393 4992 4714 3 
1394 4992 4991 1 
1395 3752 4978 3 
1396 3752 3751 1 
1397 5245 5246 1 
1398 5245 5961 2 
1399 202 5468 3 
1400 202 201 1 
1401 202 5992 3 
1402 202 230 3 
1403 5248 5247 1 
1404 5246 5248 3 
1405 231 5973 2 
1406 4960 4959 1 
1407 5182 4960 3 
1408 6026 5982 3 
1409 6026 6025 1 
1410 5982 508 3 
1411 5982 5981 1 
1412 508 254 3 
1413 508 507 1 
1414 508 6026 3 
1415 254 5982 3 
1416 254 253 1 
1417 254 6026 3 
1418 731 749 2 
1419 971 972 1 
1420 5731 5732 1 
1421 463 971 2 
1422 988 260 3 
1423 1253 1981 2 
1424 1223 1257 2 
1425 2230 2462 3 
1426 1982 1460 3 
1427 1982 1981 1 
1428 1982 2462 3 
1429 2229 2230 1 
1430 1945 2227 2 
1431 1972 2222 3 
1432 3492 3254 3 
1433 3254 3253 1 
1434 3491 3492 1 
1435 3491 4485 2 
1436 3773 4747 2 
1437 4259 4721 2 
1438 4231 4751 2 
1439 4501 4991 2 
1440 4978 5510 3 
1441 4978 4977 1 
1442 5510 3752 3 
1443 5510 5509 1 
1444 4283 4975 2 
1445 4990 5222 3 
1446 4990 4989 1 
1447 13 229 2 
1448 5974 226 3 
1449 5974 5973 1 
1450 226 236 3 
1451 226 225 1 
1452 236 242 3 
1453 236 5974 3 
1454 236 235 1 
1455 242 5974 3 
1456 242 226 3 
1457 242 241 1 
1458 225 6025 2 
1459 45 5999 2 
1460 45 46 1 
1461 243 475 2 
1462 260 259 1 
1463 260 476 3 
1464 1004 750 3 
1465 1004 1003 1 
1466 972 1004 3 
1467 476 972 3 
1468 476 750 3 
1469 750 734 3 
1470 750 749 1 
1471 734 1004 3 
1472 734 733 1 
1473 734 972 3 
1474 46 5730 3 
1475 475 476 1 
1476 259 753 2 
1477 753 754 1 
1478 5 733 2 
1479 6 5 1 
1480 233 269 2 
1481 1484 1762 3 
1482 1484 1483 1 
1483 1240 6 3 
1484 234 233 1 
1485 2791 3267 2 
1486 2222 2221 1 
1487 2751 2752 1 
1488 2972 2242 3 
1489 2972 2971 1 
1490 2224 2972 3 
1491 2224 2223 1 
1492 2242 2224 3 
1493 2242 2241 1 
1494 2262 3262 3 
1495 2262 2261 1 
1496 2262 2518 3 
1497 3262 3788 3 
1498 3262 3261 1 
1499 3798 3812 3 
1500 3798 3797 1 
1501 3016 3798 3 
1502 3016 3015 1 
1503 3015 3525 2 
1504 3526 3525 1 
1505 3512 3526 3 
1506 3505 3765 2 
1507 3511 3512 1 
1508 4744 3766 3 
1509 4744 4743 1 
1510 4530 4462 3 
1511 4530 4529 1 
1512 4462 4748 3 
1513 4462 4461 1 
1514 3766 3744 3 
1515 3766 3765 1 
1516 3766 4290 3 
1517 4290 4744 3 
1518 4290 4289 1 
1519 4002 4462 3 
1520 4002 4001 1 
1521 4002 4530 3 
1522 4002 4748 3 
1523 4748 4530 3 
1524 4748 4747 1 
1525 3744 4744 3 
1526 3744 3743 1 
1527 3744 4290 3 
1528 5027 5028 1 
1529 4758 4724 3 
1530 4724 4723 1 
1531 4722 4990 3 
1532 4722 4721 1 
1533 4284 5222 3 
1534 4284 4283 1 
1535 4284 4722 3 
1536 4284 4990 3 
1537 4213 5983 2 
1538 5233 5509 2 
1539 5222 4722 3 
1540 5222 5221 1 
1541 4223 4224 1 
1542 4223 4757 2 
1543 4757 4758 1 
1544 5026 4280 3 
1545 5026 5025 1 
1546 6226 5480 3 
1547 6226 6225 1 
1548 6226 6228 3 
1549 14 6228 3 
1550 14 13 1 
1551 14 6226 3 
1552 6228 5480 3 
1553 6228 6227 1 
1554 5480 14 3 
1555 5480 5479 1 
1556 241 5709 2 
1557 266 265 1 
1558 249 5517 2 
1559 256 488 3 
1560 256 255 1 
1561 26 256 3 
1562 26 25 1 
1563 488 26 3 
1564 488 487 1 
1565 473 525 2 
1566 489 519 2 
1567 487 6041 2 
1568 1030 782 3 
1569 1030 1029 1 
1570 782 1276 3 
1571 782 781 1 
1572 1276 1030 3 
1573 1276 1275 1 
1574 6001 6002 1 
1575 6001 6009 2 
1576 1012 782 3 
1577 1012 1011 1 
1578 1012 1030 3 
1579 1012 1276 3 
1580 515 516 1 
1581 515 1263 2 
1582 509 1243 2 
1583 6042 6041 1 
1584 516 284 3 
1585 284 283 1 
1586 284 502 3 
1587 48 516 3 
1588 48 284 3 
1589 48 764 3 
1590 10 6042 3 
1591 310 309 1 
1592 764 310 3 
1593 1011 1483 2 
1594 1239 1240 1 
1595 485 1239 2 
1596 1013 1241 2 
1597 3 747 2 
1598 1259 1269 2 
1599 1242 1738 3 
1600 1242 1241 1 
1601 1000 1222 3 
1602 1000 999 1 
1603 1019 1779 2 
1604 510 766 3 
1605 510 509 1 
1606 492 766 3 
1607 492 491 1 
1608 492 510 3 
1609 1270 1269 1 
1610 1770 1270 3 
1611 1222 1228 3 
1612 1222 1221 1 
1613 1228 1000 3 
1614 1228 1227 1 
1615 1525 1765 2 
1616 2024 2023 1 
1617 1744 2024 3 
1618 1786 1008 3 
1619 1786 1785 1 
1620 1747 1757 2 
1621 1279 2019 2 
1622 1280 1786 3 
1623 1280 1279 1 
1624 1008 1280 3 
1625 1008 1007 1 
1626 1008 1508 3 
1627 1743 1744 1 
1628 1508 1280 3 
1629 1508 1507 1 
1630 1508 1786 3 
1631 1511 1512 1 
1632 1511 1743 2 
1633 1766 1724 3 
1634 1766 1765 1 
1635 1766 2012 3 
1636 1748 1766 3 
1637 1748 1747 1 
1638 2742 1752 3 
1639 2280 2279 1 
1640 2280 2492 3 
1641 2280 2786 3 
1642 2001 2002 1 
1643 2001 2485 2 
1644 2254 2280 3 
1645 2254 2786 3 
1646 2279 2509 2 
1647 2507 2755 2 
1648 2508 2276 3 
1649 2508 2507 1 
1650 2508 2754 3 
1651 2018 2508 3 
1652 2018 2017 1 
1653 2018 2754 3 
1654 2777 3787 2 
1655 3510 3010 3 
1656 3510 3509 1 
1657 3986 3510 3 
1658 3986 3985 1 
1659 3010 3986 3 
1660 3010 3009 1 
1661 2535 3001 2 
1662 2251 2489 2 
1663 3006 2992 3 
1664 3006 3005 1 
1665 3002 2778 3 
1666 3002 3001 1 
1667 3002 3006 3 
1668 2778 3006 3 
1669 2778 2777 1 
1670 2992 2778 3 
1671 2992 2991 1 
1672 2992 3002 3 
1673 3303 3304 1 
1674 2490 2248 3 
1675 2490 2489 1 
1676 2490 3448 3 
1677 3227 3303 2 
1678 3029 4023 2 
1679 3985 4257 2 
1680 3026 2798 3 
1681 3026 3025 1 
1682 4257 4258 1 
1683 3448 3012 3 
1684 3448 3447 1 
1685 4258 3522 3 
1686 3756 3004 3 
1687 3756 3755 1 
1688 3261 3545 2 
1689 3278 4258 3 
1690 3278 3522 3 
1691 3030 3756 3 
1692 3030 3029 1 
1693 3030 3278 3 
1694 3522 3521 1 
1695 4024 4023 1 
1696 3270 4024 3 
1697 3004 3030 3 
1698 3004 3003 1 
1699 4504 4018 3 
1700 4504 4503 1 
1701 4504 4726 3 
1702 4018 3506 3 
1703 4018 4017 1 
1704 4018 4726 3 
1705 4726 3506 3 
1706 4726 4725 1 
1707 3527 3528 1 
1708 3527 3777 2 
1709 4017 4285 2 
1710 4237 4238 1 
1711 4509 4727 2 
1712 4750 4250 3 
1713 4250 4249 1 
1714 4728 4268 3 
1715 4728 4727 1 
1716 5238 6246 3 
1717 5238 5237 1 
1718 4515 4741 2 
1719 4731 5243 2 
1720 4268 4498 3 
1721 4268 4267 1 
1722 4268 4794 3 
1723 4510 5530 3 
1724 4510 4509 1 
1725 4498 4728 3 
1726 4498 4497 1 
1727 4498 4794 3 
1728 5530 4776 3 
1729 5530 5529 1 
1730 4516 4780 3 
1731 4516 4515 1 
1732 4736 5244 3 
1733 4489 4490 1 
1734 4999 5237 2 
1735 4742 4762 3 
1736 4742 4741 1 
1737 4742 5984 3 
1738 4483 4489 2 
1739 5984 5242 3 
1740 5984 5983 1 
1741 4996 4778 3 
1742 4996 4995 1 
1743 4762 5242 3 
1744 4762 4761 1 
1745 4762 5984 3 
1746 4243 4495 2 
1747 3772 4778 3 
1748 3772 3771 1 
1749 3772 4996 3 
1750 3772 4496 3 