ITEM: TIMESTEP
91080
ITEM: NUMBER OF ENTRIES
8150
ITEM: BOX BOUNDS pp pp ff
0.0000000000000000e+00 7.2168784000000002e+01
0.0000000000000000e+00 7.2168784000000002e+01
0.0000000000000000e+00 1.2000000000000000e+01
ITEM: ENTRIES index c_1[1] c_1[2] c_1[3]
1 6002 244 3 
2 244 243 1 
3 6022 248 3 
4 6022 6021 1 
5 6014 6018 3 
6 6014 6013 1 
7 24 474 3 
8 24 23 1 
9 24 6018 3 
10 24 6014 3 
11 6018 474 3 
12 6018 6017 1 
13 34 248 3 
14 34 33 1 
15 34 6022 3 
16 12 34 3 
17 12 11 1 
18 12 6022 3 
19 474 6014 3 
20 474 473 1 
21 473 525 2 
22 525 526 1 
23 1245 1246 1 
24 1747 1757 2 
25 2261 2771 2 
26 3262 3788 3 
27 3262 3261 1 
28 2992 2778 3 
29 2992 2991 1 
30 2992 3002 3 
31 2262 3262 3 
32 2262 2261 1 
33 2262 2518 3 
34 2518 3262 3 
35 2518 2517 1 
36 2518 3788 3 
37 3002 2778 3 
38 3002 3001 1 
39 3002 3006 3 
40 3006 2992 3 
41 3006 3005 1 
42 2778 3006 3 
43 2778 2777 1 
44 3788 2262 3 
45 3788 3787 1 
46 2991 3277 2 
47 4726 3506 3 
48 4726 4725 1 
49 4018 3506 3 
50 4018 4017 1 
51 4018 4726 3 
52 4504 4018 3 
53 4504 4503 1 
54 4504 4726 3 
55 3506 4504 3 
56 3506 3505 1 
57 3505 3765 2 
58 3798 3812 3 
59 3798 3797 1 
60 6246 4488 3 
61 6246 6245 1 
62 30 6016 3 
63 30 29 1 
64 30 5516 3 
65 6011 6021 2 
66 6001 6002 1 
67 6001 6009 2 
68 5765 6013 2 
69 5516 6016 3 
70 5516 5515 1 
71 6016 520 3 
72 6016 6015 1 
73 545 553 2 
74 1042 1244 3 
75 1042 1041 1 
76 1758 1020 3 
77 1758 1757 1 
78 1020 536 3 
79 1020 1019 1 
80 536 1002 3 
81 536 535 1 
82 536 1758 3 
83 1522 1774 3 
84 1522 1521 1 
85 1522 1772 3 
86 1772 1774 3 
87 1772 1771 1 
88 2002 2486 3 
89 2002 2774 3 
90 2486 2485 1 
91 2486 2774 3 
92 2298 2526 3 
93 2298 2297 1 
94 2298 2774 3 
95 2526 2764 3 
96 2526 2525 1 
97 2764 2298 3 
98 2764 2763 1 
99 2510 2509 1 
100 2271 2763 2 
101 1519 2275 2 
102 2777 3787 2 
103 2302 2512 3 
104 1504 2252 3 
105 1504 1503 1 
106 2762 1504 3 
107 2762 2761 1 
108 2301 2302 1 
109 2301 2797 2 
110 2251 2489 2 
111 3014 3544 3 
112 3014 3013 1 
113 3014 4028 3 
114 3014 4046 3 
115 3769 4503 2 
116 3501 3539 2 
117 4028 3544 3 
118 4028 4027 1 
119 4276 4048 3 
120 4276 4275 1 
121 4735 4736 1 
122 4493 4735 2 
123 266 265 1 
124 1330 1329 1 
125 20 1330 3 
126 6030 5540 3 
127 6030 6029 1 
128 786 296 3 
129 786 785 1 
130 786 790 3 
131 518 786 3 
132 518 517 1 
133 518 790 3 
134 296 518 3 
135 296 295 1 
136 790 296 3 
137 790 789 1 
138 5803 5804 1 
139 292 291 1 
140 761 1037 2 
141 1267 1549 2 
142 1268 1760 3 
143 1268 1267 1 
144 1760 1536 3 
145 1760 1759 1 
146 1536 1268 3 
147 1536 1535 1 
148 1278 1268 3 
149 1278 1277 1 
150 1278 1760 3 
151 1278 1536 3 
152 1281 1541 2 
153 1774 1282 3 
154 1774 1773 1 
155 1773 2297 2 
156 2313 2775 2 
157 2511 2512 1 
158 2511 2767 2 
159 2314 1520 3 
160 2314 2313 1 
161 2314 2818 3 
162 1520 2296 3 
163 1520 1519 1 
164 1520 2818 3 
165 2818 2296 3 
166 2818 2817 1 
167 2512 2530 3 
168 2512 2522 3 
169 2531 2731 2 
170 2296 2314 3 
171 2296 2295 1 
172 2272 2271 1 
173 2546 2272 3 
174 1784 3252 3 
175 1784 1783 1 
176 2530 2532 3 
177 2530 2529 1 
178 2282 1784 3 
179 2282 2281 1 
180 2532 2772 3 
181 2532 2531 1 
182 2522 2532 3 
183 2522 2772 3 
184 2528 3780 3 
185 2772 2530 3 
186 2772 2771 1 
187 3252 2282 3 
188 3252 3251 1 
189 3780 3779 1 
190 4026 3746 3 
191 4026 4036 3 
192 3746 3745 1 
193 3746 4036 3 
194 3804 4052 3 
195 4052 4051 1 
196 4052 3312 3 
197 3502 3501 1 
198 3991 3992 1 
199 4287 4288 1 
200 3992 3502 3 
201 4534 5036 3 
202 4534 4533 1 
203 4005 4287 2 
204 4282 4264 3 
205 4282 4281 1 
206 4282 4534 3 
207 5036 4282 3 
208 5036 5035 1 
209 4264 5036 3 
210 4264 4263 1 
211 4264 4534 3 
212 3281 3991 2 
213 4802 4554 3 
214 4554 4553 1 
215 4315 4316 1 
216 4500 4276 3 
217 4500 4499 1 
218 4048 4500 3 
219 4048 4047 1 
220 4765 5537 2 
221 5540 542 3 
222 5540 5539 1 
223 5540 5780 3 
224 5804 292 3 
225 38 37 1 
226 258 38 3 
227 1792 2308 3 
228 1792 1791 1 
229 1290 1792 3 
230 1290 1289 1 
231 1290 1542 3 
232 2308 1290 3 
233 2308 2307 1 
234 1542 1792 3 
235 1542 1541 1 
236 1542 2308 3 
237 2284 1778 3 
238 2284 2283 1 
239 1778 1292 3 
240 1778 1777 1 
241 1292 2284 3 
242 1292 1291 1 
243 2281 2529 2 
244 3312 3311 1 
245 3312 3804 3 
246 4801 4802 1 
247 3558 4066 3 
248 3558 3557 1 
249 3558 3574 3 
250 4316 4790 3 
251 5760 4804 3 
252 5760 5759 1 
253 5284 5296 3 
254 5284 5283 1 
255 5284 5760 3 
256 4804 5284 3 
257 4804 4803 1 
258 5296 4804 3 
259 5296 5295 1 
260 5296 5760 3 
261 5538 6048 3 
262 5538 5537 1 
263 6048 5262 3 
264 6048 6047 1 
265 5318 5317 1 
266 5544 5318 3 
267 6044 322 3 
268 6044 6043 1 
269 784 538 3 
270 784 783 1 
271 784 6044 3 
272 322 538 3 
273 322 321 1 
274 322 784 3 
275 538 6044 3 
276 538 537 1 
277 313 559 2 
278 70 798 3 
279 70 69 1 
280 70 72 3 
281 798 314 3 
282 798 797 1 
283 314 70 3 
284 314 313 1 
285 72 314 3 
286 72 71 1 
287 72 798 3 
288 1333 2307 2 
289 1571 1781 2 
290 3784 3783 1 
291 3291 3299 2 
292 3840 3602 3 
293 3840 3839 1 
294 3292 3310 3 
295 3292 3291 1 
296 3792 3292 3 
297 3792 3791 1 
298 3310 3792 3 
299 3310 3309 1 
300 3031 3309 2 
301 3607 3608 1 
302 3607 3813 2 
303 3322 3582 3 
304 3322 3321 1 
305 4312 3322 3 
306 4312 4311 1 
307 3582 4312 3 
308 3582 3581 1 
309 3331 3567 2 
310 3062 3582 3 
311 3062 3061 1 
312 3062 4312 3 
313 3062 3322 3 
314 5814 5044 3 
315 5814 5813 1 
316 5814 5830 3 
317 353 5541 2 
318 5043 5317 2 
319 5821 5822 1 
320 5825 6063 2 
321 783 5777 2 
322 2316 1096 3 
323 1096 1095 1 
324 1540 1572 3 
325 1540 1539 1 
326 1064 1572 3 
327 1064 1063 1 
328 1064 1540 3 
329 1064 1302 3 
330 2304 1314 3 
331 1302 1540 3 
332 1302 1301 1 
333 1314 1313 1 
334 1572 1302 3 
335 1572 1571 1 
336 1826 2070 3 
337 2070 2069 1 
338 2070 3352 3 
339 2322 1576 3 
340 2322 2321 1 
341 3351 3352 1 
342 3832 3840 3 
343 3832 3831 1 
344 3602 3832 3 
345 3602 3601 1 
346 2809 2810 1 
347 3563 3831 2 
348 2036 2035 1 
349 3067 3321 2 
350 3584 3583 1 
351 3332 4588 3 
352 3332 3331 1 
353 3583 3599 2 
354 4076 3064 3 
355 4076 4075 1 
356 3776 3332 3 
357 3776 3775 1 
358 3776 4086 3 
359 2788 4076 3 
360 2788 2787 1 
361 4086 3332 3 
362 4086 4085 1 
363 4086 4588 3 
364 3568 4058 3 
365 3568 3567 1 
366 3568 4300 3 
367 4292 3568 3 
368 4292 4291 1 
369 4292 4300 3 
370 4058 4292 3 
371 4058 4057 1 
372 4300 4058 3 
373 4300 4299 1 
374 6088 6087 1 
375 5044 5302 3 
376 5044 5043 1 
377 5830 5044 3 
378 5830 5829 1 
379 5302 5814 3 
380 5302 5301 1 
381 5302 5830 3 
382 5819 6083 2 
383 5301 6087 2 
384 5559 6053 2 
385 6084 5816 3 
386 6084 6083 1 
387 5781 5782 1 
388 5567 5781 2 
389 76 562 3 
390 76 75 1 
391 81 82 1 
392 81 563 2 
393 338 572 3 
394 338 337 1 
395 572 306 3 
396 572 571 1 
397 572 582 3 
398 582 338 3 
399 582 581 1 
400 571 1559 2 
401 1560 1078 3 
402 1560 1559 1 
403 844 1560 3 
404 844 843 1 
405 1078 844 3 
406 1078 1077 1 
407 1063 1817 2 
408 2057 2309 2 
409 1576 2084 3 
410 1576 1575 1 
411 2084 2322 3 
412 2084 2083 1 
413 2058 2306 3 
414 2058 2057 1 
415 2058 3352 3 
416 2581 2582 1 
417 2824 3038 3 
418 1790 2058 3 
419 1790 1789 1 
420 1790 2354 3 
421 2823 2824 1 
422 2045 2046 1 
423 2045 3043 2 
424 1845 1846 1 
425 1825 1845 2 
426 1825 1826 1 
427 1846 2580 3 
428 2810 2036 3 
429 3847 3829 2 
430 3343 3353 2 
431 3830 3324 3 
432 3830 3829 1 
433 3848 3830 3 
434 3848 3847 1 
435 3064 2788 3 
436 3064 3063 1 
437 3324 3848 3 
438 3324 3323 1 
439 3323 3775 2 
440 3579 3821 2 
441 3579 3580 1 
442 3850 3822 3 
443 3850 3849 1 
444 3850 4610 3 
445 3575 3815 2 
446 87 88 1 
447 4309 4543 2 
448 5606 4840 3 
449 5606 5605 1 
450 4834 5606 3 
451 4834 4833 1 
452 4335 4541 2 
453 5328 5327 1 
454 5578 5328 3 
455 5794 5568 3 
456 5794 5793 1 
457 5794 5808 3 
458 5808 5568 3 
459 5808 5807 1 
460 5560 5808 3 
461 5560 5559 1 
462 5560 5794 3 
463 5568 5560 3 
464 5568 5567 1 
465 5807 5839 2 
466 6027 6028 1 
467 6027 6079 2 
468 98 5620 3 
469 98 97 1 
470 6081 6082 1 
471 1148 1147 1 
472 6106 98 3 
473 6106 6105 1 
474 95 96 1 
475 95 6081 2 
476 355 356 1 
477 337 355 2 
478 564 563 1 
479 564 840 3 
480 840 839 1 
481 306 338 3 
482 306 305 1 
483 306 582 3 
484 82 564 3 
485 82 840 3 
486 1814 596 3 
487 1814 1813 1 
488 596 1092 3 
489 596 595 1 
490 1102 596 3 
491 1102 1101 1 
492 1102 1814 3 
493 1092 1814 3 
494 1092 1091 1 
495 1092 1102 3 
496 1069 1327 2 
497 1077 1367 2 
498 1341 1342 1 
499 1341 1831 2 
500 1574 1586 3 
501 1574 1860 3 
502 817 2319 2 
503 2319 2320 1 
504 3044 2828 3 
505 3044 3043 1 
506 2610 2340 3 
507 2610 2609 1 
508 3604 3044 3 
509 3604 3603 1 
510 2340 2360 3 
511 2340 2339 1 
512 2580 2579 1 
513 2337 2338 1 
514 2337 2827 2 
515 2338 2072 3 
516 2834 3354 3 
517 2834 2833 1 
518 3818 3612 3 
519 3818 3817 1 
520 4123 4857 2 
521 4117 4341 2 
522 3822 4572 3 
523 3822 3821 1 
524 3822 4610 3 
525 4610 4572 3 
526 4610 4609 1 
527 4572 3850 3 
528 4572 4571 1 
529 4321 4351 2 
530 3833 4571 2 
531 3833 3834 1 
532 4114 4113 1 
533 4604 5346 3 
534 4604 4603 1 
535 3834 4114 3 
536 4824 4886 3 
537 4886 4885 1 
538 4340 4604 3 
539 4340 4339 1 
540 5346 4340 3 
541 5346 5345 1 
542 4823 4824 1 
543 5079 5345 2 
544 6072 5340 3 
545 6072 6071 1 
546 5840 6072 3 
547 5840 5839 1 
548 5340 5840 3 
549 5340 5339 1 
550 5084 5340 3 
551 5084 5083 1 
552 5084 6072 3 
553 5084 5840 3 
554 5620 6106 3 
555 5620 5619 1 
556 858 876 3 
557 858 857 1 
558 343 831 2 
559 115 857 2 
560 1101 1637 2 
561 1637 1638 1 
562 839 1337 2 
563 1342 1596 3 
564 1342 1860 3 
565 1354 1108 3 
566 1354 1353 1 
567 1354 1834 3 
568 1108 862 3 
569 1108 1107 1 
570 1114 812 3 
571 1114 1113 1 
572 1114 1634 3 
573 1586 1585 1 
574 1834 1108 3 
575 1834 1833 1 
576 862 1354 3 
577 862 861 1 
578 862 1834 3 
579 1335 1336 1 
580 1335 1809 2 
581 2074 1810 3 
582 2074 2073 1 
583 2090 2074 3 
584 2090 2089 1 
585 1810 2090 3 
586 1810 1809 1 
587 1812 1810 3 
588 1812 1811 1 
589 1812 2074 3 
590 1812 2090 3 
591 818 1098 3 
592 818 817 1 
593 1098 2120 3 
594 1098 1097 1 
595 2120 818 3 
596 2120 2119 1 
597 1097 2565 2 
598 2601 2609 2 
599 2081 2089 2 
600 2360 2610 3 
601 2360 2359 1 
602 2828 3604 3 
603 2828 2827 1 
604 2109 2607 2 
605 2357 2358 1 
606 2351 2357 2 
607 2096 2366 3 
608 2805 2806 1 
609 2805 3603 2 
610 2845 2863 2 
611 2366 2365 1 
612 3605 3819 2 
613 3092 3606 3 
614 3092 3091 1 
615 3606 3864 3 
616 3606 3605 1 
617 3864 3092 3 
618 3864 3863 1 
619 2584 3360 3 
620 2584 2583 1 
621 3360 3106 3 
622 3360 3359 1 
623 3106 2584 3 
624 3106 3105 1 
625 3106 3112 3 
626 3112 2584 3 
627 3112 3111 1 
628 3112 3360 3 
629 4082 3818 3 
630 4082 4081 1 
631 4346 4342 3 
632 4346 4345 1 
633 4342 4122 3 
634 4342 4822 3 
635 4342 4341 1 
636 3111 3591 2 
637 4122 4822 3 
638 4122 4346 3 
639 4122 4121 1 
640 3591 3592 1 
641 4822 4346 3 
642 4822 4821 1 
643 3594 3366 3 
644 3594 3593 1 
645 3593 3863 2 
646 4124 3594 3 
647 4124 4123 1 
648 2841 3333 2 
649 4375 4376 1 
650 4375 5375 2 
651 4595 5093 2 
652 109 125 2 
653 370 654 3 
654 370 369 1 
655 370 616 3 
656 370 864 3 
657 616 654 3 
658 616 615 1 
659 864 616 3 
660 864 863 1 
661 654 864 3 
662 654 653 1 
663 116 115 1 
664 5638 586 3 
665 5638 5637 1 
666 832 5638 3 
667 832 831 1 
668 586 832 3 
669 586 585 1 
670 1338 1114 3 
671 1338 1337 1 
672 1634 1338 3 
673 1634 1633 1 
674 812 1338 3 
675 812 811 1 
676 812 1634 3 
677 2566 2565 1 
678 1850 2566 3 
679 1625 1629 2 
680 1811 2623 2 
681 1606 1630 3 
682 1606 1605 1 
683 1630 1836 3 
684 1630 1629 1 
685 1630 2602 3 
686 2602 1606 3 
687 2602 2601 1 
688 1857 3099 2 
689 1836 1606 3 
690 1836 1835 1 
691 1836 2602 3 
692 3099 3100 1 
693 1849 1850 1 
694 1589 1849 2 
695 2825 3339 2 
696 2624 2344 3 
697 2624 2623 1 
698 2344 2850 3 
699 2344 2343 1 
700 2344 2608 3 
701 2082 2081 1 
702 2608 2624 3 
703 2608 2607 1 
704 2608 2850 3 
705 2816 2082 3 
706 2850 2624 3 
707 2850 2849 1 
708 2854 2853 1 
709 3100 2854 3 
710 2365 2595 2 
711 2363 2861 2 
712 3127 3385 2 
713 2595 2596 1 
714 2358 2870 3 
715 4121 4607 2 
716 3375 3883 2 
717 3625 3626 1 
718 3625 3851 2 
719 3592 3838 3 
720 3592 4386 3 
721 3124 2336 3 
722 3124 3123 1 
723 3124 3874 3 
724 4620 3870 3 
725 4620 4619 1 
726 4383 4889 2 
727 603 851 2 
728 615 1431 2 
729 1079 1080 1 
730 1079 1355 2 
731 5597 5598 1 
732 5597 5637 2 
733 1601 1602 1 
734 895 1873 2 
735 1617 2855 2 
736 1605 1869 2 
737 1131 1139 2 
738 2372 1132 3 
739 2372 2371 1 
740 3134 2372 3 
741 3134 3133 1 
742 1858 1857 1 
743 1858 3340 3 
744 1858 2616 3 
745 2616 2856 3 
746 2616 2615 1 
747 2856 1858 3 
748 2856 2855 1 
749 2856 3340 3 
750 3340 2616 3 
751 3340 3339 1 
752 1132 3134 3 
753 1132 1131 1 
754 1862 1590 3 
755 1862 1861 1 
756 1590 2376 3 
757 1590 1589 1 
758 2376 1862 3 
759 2376 2375 1 
760 2343 2369 2 
761 1848 1847 1 
762 2611 3083 2 
763 2611 2612 1 
764 2596 1848 3 
765 2869 3117 2 
766 2612 3180 3 
767 3180 3179 1 
768 3644 3844 3 
769 3644 3643 1 
770 3380 3644 3 
771 3380 3379 1 
772 3844 3380 3 
773 3844 3843 1 
774 3379 3895 2 
775 3397 3843 2 
776 3852 3898 3 
777 3852 3851 1 
778 3898 2866 3 
779 3898 3897 1 
780 2866 3852 3 
781 2866 2865 1 
782 2335 3123 2 
783 3376 4146 3 
784 3376 3375 1 
785 4370 4104 3 
786 4370 4369 1 
787 4870 4370 3 
788 4870 4869 1 
789 3626 4370 3 
790 3626 4870 3 
791 3626 4104 3 
792 4104 4870 3 
793 4104 4103 1 
794 4851 4881 2 
795 4120 5356 3 
796 4120 4119 1 
797 5122 4120 3 
798 5122 5121 1 
799 5356 5122 3 
800 5356 5355 1 
801 4384 4383 1 
802 4362 4384 3 
803 5626 5625 1 
804 6116 5626 3 
805 4371 5625 2 
806 6120 5842 3 
807 5842 5841 1 
808 102 6086 3 
809 102 101 1 
810 102 878 3 
811 1432 1356 3 
812 1432 1431 1 
813 1356 1106 3 
814 1356 1355 1 
815 1106 1432 3 
816 1106 1105 1 
817 5858 5857 1 
818 5598 5858 3 
819 1105 1135 2 
820 414 1376 3 
821 1376 1375 1 
822 1381 1382 1 
823 1381 1897 2 
824 1874 1900 3 
825 1874 1873 1 
826 1900 1918 3 
827 1900 1899 1 
828 1358 1874 3 
829 1358 1357 1 
830 1358 1918 3 
831 1358 1900 3 
832 1918 1874 3 
833 1918 1917 1 
834 1137 1138 1 
835 1137 1375 2 
836 2903 3133 2 
837 2903 2904 1 
838 1853 2155 2 
839 1847 2615 2 
840 2390 2389 1 
841 2904 2390 3 
842 3668 2676 3 
843 3668 3667 1 
844 3418 2676 3 
845 3418 3417 1 
846 3418 3668 3 
847 3371 3372 1 
848 2877 3897 2 
849 4638 4882 3 
850 4638 4637 1 
851 4638 4864 3 
852 5121 5143 2 
853 4891 4892 1 
854 5127 5361 2 
855 5362 5878 3 
856 5362 5361 1 
857 4156 5362 3 
858 4156 4155 1 
859 5878 4156 3 
860 5878 5877 1 
861 877 5875 2 
862 185 1161 2 
863 1898 1624 3 
864 1898 1897 1 
865 1162 1898 3 
866 1162 1161 1 
867 1682 1162 3 
868 1682 1681 1 
869 1682 1898 3 
870 2152 2374 3 
871 2152 2151 1 
872 2174 2152 3 
873 2174 2173 1 
874 1651 1652 1 
875 1651 1917 2 
876 1855 1899 2 
877 2374 2174 3 
878 2374 2373 1 
879 1882 2174 3 
880 1882 1881 1 
881 1882 2374 3 
882 1882 2152 3 
883 1907 2373 2 
884 2655 3151 2 
885 3370 3369 1 
886 3162 3370 3 
887 3372 3910 3 
888 3910 3909 1 
889 4924 3622 3 
890 3622 3621 1 
891 4397 5355 2 
892 5144 5143 1 
893 4160 4159 1 
894 4658 4160 3 
895 5431 5653 2 
896 6188 6150 3 
897 6188 6187 1 
898 660 6150 3 
899 660 659 1 
900 660 5172 3 
901 660 6188 3 
902 6150 5172 3 
903 6150 6149 1 
904 5172 6188 3 
905 5172 5171 1 
906 144 6148 3 
907 144 143 1 
908 416 144 3 
909 416 415 1 
910 416 642 3 
911 409 6187 2 
912 410 186 3 
913 410 409 1 
914 186 1692 3 
915 186 185 1 
916 186 392 3 
917 1692 410 3 
918 1692 1691 1 
919 392 410 3 
920 392 391 1 
921 392 1692 3 
922 1149 1150 1 
923 867 1149 2 
924 953 1623 2 
925 2148 1908 3 
926 1908 1907 1 
927 2656 2934 3 
928 2656 2655 1 
929 2656 3680 3 
930 3174 2656 3 
931 3174 3173 1 
932 3174 3680 3 
933 2934 3174 3 
934 2934 2933 1 
935 3680 2934 3 
936 3680 3679 1 
937 3161 4141 2 
938 3161 3162 1 
939 3886 2912 3 
940 2912 2911 1 
941 5402 5428 3 
942 5402 5401 1 
943 5428 4418 3 
944 5428 5427 1 
945 5154 5144 3 
946 4137 4403 2 
947 5153 5154 1 
948 4893 5153 2 
949 4399 5617 2 
950 5664 4138 3 
951 4675 4887 2 
952 4138 4137 1 
953 4400 4888 3 
954 4400 4399 1 
955 4888 4878 3 
956 4888 4887 1 
957 4878 4400 3 
958 4878 4877 1 
959 6168 122 3 
960 6168 6167 1 
961 171 5649 2 
962 155 6135 2 
963 426 425 1 
964 1208 1182 3 
965 1208 1207 1 
966 954 1208 3 
967 954 953 1 
968 954 1174 3 
969 1174 1208 3 
970 1174 1173 1 
971 1174 1182 3 
972 940 2130 3 
973 940 939 1 
974 940 1176 3 
975 1644 940 3 
976 1644 1643 1 
977 2130 1644 3 
978 2130 2129 1 
979 1913 1914 1 
980 3166 2444 3 
981 3166 3165 1 
982 2673 3165 2 
983 3163 3173 2 
984 4172 3396 3 
985 4172 4171 1 
986 3912 4172 3 
987 3912 3911 1 
988 3396 3912 3 
989 3396 3395 1 
990 3164 3666 3 
991 3164 3163 1 
992 3164 3388 3 
993 3906 3164 3 
994 3906 3905 1 
995 3388 3906 3 
996 3388 3387 1 
997 3388 3666 3 
998 4652 5168 3 
999 4652 4651 1 
1000 4894 4652 3 
1001 4894 4893 1 
1002 4894 5618 3 
1003 5618 4652 3 
1004 5618 5617 1 
1005 5168 4894 3 
1006 5168 5167 1 
1007 5168 5618 3 
1008 6138 5406 3 
1009 5406 5405 1 
1010 6167 6189 2 
1011 405 913 2 
1012 669 945 2 
1013 425 447 2 
1014 952 460 3 
1015 952 951 1 
1016 460 702 3 
1017 460 459 1 
1018 460 692 3 
1019 459 935 2 
1020 702 952 3 
1021 702 701 1 
1022 692 702 3 
1023 692 691 1 
1024 692 952 3 
1025 1688 2432 3 
1026 1688 1687 1 
1027 1687 1949 2 
1028 2431 2437 2 
1029 2194 2444 3 
1030 2194 2193 1 
1031 2194 3166 3 
1032 2950 2194 3 
1033 2950 2949 1 
1034 2950 3166 3 
1035 2444 2950 3 
1036 2444 2443 1 
1037 2197 2691 2 
1038 4163 4164 1 
1039 6217 6218 1 
1040 6222 5210 3 
1041 6222 6221 1 
1042 5454 6222 3 
1043 5454 5453 1 
1044 5425 5426 1 
1045 5425 5955 2 
1046 5183 5453 2 
1047 5184 5183 1 
1048 5426 5184 3 
1049 1178 894 3 
1050 1178 1177 1 
1051 670 1178 3 
1052 670 669 1 
1053 894 670 3 
1054 894 893 1 
1055 693 1177 2 
1056 427 428 1 
1057 428 694 3 
1058 694 693 1 
1059 451 452 1 
1060 451 5993 2 
1061 657 683 2 
1062 1180 458 3 
1063 1180 1179 1 
1064 436 1180 3 
1065 436 435 1 
1066 679 6175 2 
1067 1447 1693 2 
1068 936 682 3 
1069 936 935 1 
1070 710 936 3 
1071 710 709 1 
1072 672 936 3 
1073 672 671 1 
1074 672 710 3 
1075 682 672 3 
1076 682 681 1 
1077 682 710 3 
1078 671 921 2 
1079 2440 2926 3 
1080 2440 2439 1 
1081 1950 2440 3 
1082 1950 1949 1 
1083 2442 1950 3 
1084 2442 2440 3 
1085 2442 2441 1 
1086 3401 3435 2 
1087 3401 3402 1 
1088 2722 2422 3 
1089 2722 2721 1 
1090 2900 2899 1 
1091 3402 2900 3 
1092 2899 3673 2 
1093 4672 4671 1 
1094 4220 4672 3 
1095 3460 3459 1 
1096 4219 4693 2 
1097 4219 4220 1 
1098 3976 3460 3 
1099 3939 4163 2 
1100 4694 3686 3 
1101 4694 4693 1 
1102 3929 4667 2 
1103 3738 3737 1 
1104 3686 4212 3 
1105 3686 3685 1 
1106 3686 4682 3 
1107 4212 4694 3 
1108 4212 4211 1 
1109 4682 4212 3 
1110 4682 4681 1 
1111 4682 4694 3 
1112 3429 3693 2 
1113 3974 3738 3 
1114 4166 3430 3 
1115 4166 4165 1 
1116 3930 4166 3 
1117 3930 3929 1 
1118 4444 4458 3 
1119 3430 3930 3 
1120 3430 3429 1 
1121 4458 4457 1 
1122 4199 4933 2 
1123 5224 5223 1 
1124 5458 5224 3 
1125 5195 5196 1 
1126 5195 5219 2 
1127 5209 5681 2 
1128 4186 5218 3 
1129 4186 4185 1 
1130 4186 4460 3 
1131 4186 5220 3 
1132 5220 4460 3 
1133 5220 5219 1 
1134 5210 5454 3 
1135 5210 5209 1 
1136 195 196 1 
1137 195 1383 2 
1138 5229 5931 2 
1139 194 193 1 
1140 196 194 3 
1141 5994 730 3 
1142 730 729 1 
1143 450 6198 3 
1144 450 449 1 
1145 5960 450 3 
1146 5960 5959 1 
1147 6192 432 3 
1148 6192 6191 1 
1149 5993 5994 1 
1150 6198 5960 3 
1151 6198 6197 1 
1152 666 434 3 
1153 666 665 1 
1154 433 697 2 
1155 221 222 1 
1156 221 431 2 
1157 434 680 3 
1158 434 433 1 
1159 434 1186 3 
1160 680 666 3 
1161 680 679 1 
1162 680 1186 3 
1163 1186 666 3 
1164 1186 1185 1 
1165 458 436 3 
1166 458 457 1 
1167 457 6199 2 
1168 709 1461 2 
1169 1713 1983 2 
1170 1217 1941 2 
1171 681 961 2 
1172 1453 1665 2 
1173 1940 1939 1 
1174 1665 1666 1 
1175 1964 1720 3 
1176 1964 1963 1 
1177 1964 2206 3 
1178 1942 1964 3 
1179 1942 1941 1 
1180 1942 2206 3 
1181 2426 1940 3 
1182 1720 1719 1 
1183 1720 2206 3 
1184 1204 1684 3 
1185 1204 1203 1 
1186 1979 2171 2 
1187 2926 2442 3 
1188 2926 1950 3 
1189 2926 2925 1 
1190 2923 2947 2 
1191 3946 3450 3 
1192 3946 3945 1 
1193 3450 3958 3 
1194 3450 3449 1 
1195 3958 3946 3 
1196 3958 3957 1 
1197 2948 3958 3 
1198 2948 2947 1 
1199 2948 3450 3 
1200 2948 3946 3 
1201 2930 3190 3 
1202 3226 2704 3 
1203 3226 3225 1 
1204 3226 3424 3 
1205 2946 2704 3 
1206 2946 2945 1 
1207 2946 3226 3 
1208 3190 3189 1 
1209 2446 2930 3 
1210 2446 3458 3 
1211 2446 3190 3 
1212 3449 3941 2 
1213 3945 4671 2 
1214 3459 3957 2 
1215 3712 3928 3 
1216 3712 3711 1 
1217 3975 3976 1 
1218 3702 3701 1 
1219 3701 3975 2 
1220 3422 3702 3 
1221 3211 3723 2 
1222 4211 4465 2 
1223 4209 5451 2 
1224 4443 4444 1 
1225 4448 4210 3 
1226 4448 4447 1 
1227 4448 5442 3 
1228 4698 4448 3 
1229 4698 4697 1 
1230 4698 5442 3 
1231 5442 4210 3 
1232 5442 5441 1 
1233 4210 4698 3 
1234 4210 4209 1 
1235 4697 5457 2 
1236 4934 4933 1 
1237 4434 4184 3 
1238 4434 4433 1 
1239 4958 4434 3 
1240 4958 4957 1 
1241 4958 5476 3 
1242 5457 5458 1 
1243 4469 4470 1 
1244 4469 4703 2 
1245 5476 4434 3 
1246 5476 5475 1 
1247 4432 4934 3 
1248 4460 5218 3 
1249 4460 4459 1 
1250 423 5933 2 
1251 5470 5696 3 
1252 5470 5469 1 
1253 5696 5230 3 
1254 5696 5695 1 
1255 5696 6240 3 
1256 6240 5470 3 
1257 6240 6239 1 
1258 5230 5470 3 
1259 5230 5229 1 
1260 5230 6240 3 
1261 209 729 2 
1262 453 923 2 
1263 923 924 1 
1264 924 920 3 
1265 698 924 3 
1266 698 920 3 
1267 200 698 3 
1268 200 716 3 
1269 200 924 3 
1270 716 920 3 
1271 716 6220 3 
1272 6220 6219 1 
1273 228 6220 3 
1274 920 919 1 
1275 6197 6219 2 
1276 697 698 1 
1277 950 238 3 
1278 238 237 1 
1279 222 178 3 
1280 178 177 1 
1281 237 1493 2 
1282 216 6200 3 
1283 216 215 1 
1284 216 1714 3 
1285 6200 472 3 
1286 6200 6199 1 
1287 1714 6200 3 
1288 1714 1713 1 
1289 472 216 3 
1290 472 471 1 
1291 472 1714 3 
1292 1462 1496 3 
1293 1462 1461 1 
1294 1708 2212 3 
1295 1708 1707 1 
1296 1203 1989 2 
1297 2704 3424 3 
1298 2704 2703 1 
1299 3967 3977 2 
1300 2445 2446 1 
1301 2445 3207 2 
1302 3424 2946 3 
1303 3424 3423 1 
1304 3968 3967 1 
1305 3926 3968 3 
1306 3421 3422 1 
1307 3421 3711 2 
1308 3465 3749 2 
1309 3933 3959 2 
1310 3466 3762 3 
1311 3466 3465 1 
1312 4474 4206 3 
1313 4474 4473 1 
1314 4474 4988 3 
1315 3762 4464 3 
1316 3762 3761 1 
1317 4464 3466 3 
1318 4464 4463 1 
1319 3932 3934 3 
1320 3932 3931 1 
1321 3944 3714 3 
1322 4438 4206 3 
1323 4438 4437 1 
1324 4438 4474 3 
1325 4988 4438 3 
1326 4988 4987 1 
1327 4206 4988 3 
1328 4206 4205 1 
1329 3761 5441 2 
1330 5228 5236 3 
1331 5228 5227 1 
1332 5980 5690 3 
1333 5980 5979 1 
1334 5486 5676 3 
1335 5486 5485 1 
1336 6202 5990 3 
1337 6202 6201 1 
1338 4960 4959 1 
1339 5182 4960 3 
1340 5676 6164 3 
1341 5676 5675 1 
1342 464 463 1 
1343 253 6235 2 
1344 480 464 3 
1345 7 497 2 
1346 227 228 1 
1347 227 993 2 
1348 1458 1470 3 
1349 1458 1457 1 
1350 1491 1735 2 
1351 1475 1476 1 
1352 1486 2236 3 
1353 1486 1485 1 
1354 1486 2730 3 
1355 1486 1736 3 
1356 1736 2730 3 
1357 1736 1735 1 
1358 2236 1736 3 
1359 2236 2235 1 
1360 2730 2236 3 
1361 2730 2729 1 
1362 1478 1477 1 
1363 2461 2462 1 
1364 1477 1991 2 
1365 1991 1992 1 
1366 2460 2700 3 
1367 2460 2459 1 
1368 2232 2460 3 
1369 2232 2231 1 
1370 2232 2700 3 
1371 2232 3472 3 
1372 3472 2460 3 
1373 3472 3471 1 
1374 2700 3472 3 
1375 2700 2699 1 
1376 3208 2190 3 
1377 3208 3984 3 
1378 3208 3207 1 
1379 2450 3208 3 
1380 2450 2449 1 
1381 2190 3984 3 
1382 2190 2450 3 
1383 2190 2189 1 
1384 3984 2450 3 
1385 3984 3983 1 
1386 3473 3474 1 
1387 3473 4193 2 
1388 4194 4198 3 
1389 4194 4193 1 
1390 4194 4208 3 
1391 4208 4198 3 
1392 4208 4207 1 
1393 3477 3721 2 
1394 4198 3960 3 
1395 4198 4197 1 
1396 3960 4194 3 
1397 3960 3959 1 
1398 3960 4208 3 
1399 4232 4016 3 
1400 4232 4231 1 
1401 4480 4970 3 
1402 4480 4479 1 
1403 5028 4232 3 
1404 5028 5027 1 
1405 4479 4713 2 
1406 4982 4992 3 
1407 4982 4981 1 
1408 4714 4982 3 
1409 4714 4713 1 
1410 4992 4714 3 
1411 4992 4991 1 
1412 4733 4734 1 
1413 4733 5025 2 
1414 4981 5203 2 
1415 5246 5248 3 
1416 5181 5182 1 
1417 5181 6249 2 
1418 241 5709 2 
1419 5477 5478 1 
1420 5477 5719 2 
1421 5709 5710 1 
1422 504 6238 3 
1423 504 503 1 
1424 6250 504 3 
1425 6250 6249 1 
1426 438 6238 3 
1427 438 437 1 
1428 438 504 3 
1429 438 6250 3 
1430 6238 6250 3 
1431 6238 6237 1 
1432 463 971 2 
1433 971 972 1 
1434 5982 508 3 
1435 5982 5981 1 
1436 254 5982 3 
1437 254 253 1 
1438 254 6026 3 
1439 6236 994 3 
1440 6236 6235 1 
1441 468 6236 3 
1442 468 467 1 
1443 994 468 3 
1444 994 993 1 
1445 987 988 1 
1446 987 6229 2 
1447 731 749 2 
1448 260 259 1 
1449 260 476 3 
1450 750 734 3 
1451 750 749 1 
1452 476 972 3 
1453 476 750 3 
1454 734 1004 3 
1455 734 733 1 
1456 734 972 3 
1457 498 732 3 
1458 498 497 1 
1459 732 6230 3 
1460 732 731 1 
1461 6230 498 3 
1462 6230 6229 1 
1463 494 6230 3 
1464 494 493 1 
1465 494 732 3 
1466 494 498 3 
1467 1216 1458 3 
1468 1216 1215 1 
1469 1470 1216 3 
1470 1470 1469 1 
1471 744 1258 3 
1472 744 743 1 
1473 744 984 3 
1474 211 957 2 
1475 1247 1475 2 
1476 1258 1248 3 
1477 1258 1257 1 
1478 1474 1478 3 
1479 2215 2705 2 
1480 1473 1474 1 
1481 1465 1466 1 
1482 1465 1473 2 
1483 1945 2227 2 
1484 2966 2710 3 
1485 2966 2965 1 
1486 2710 2990 3 
1487 2710 2709 1 
1488 2990 2966 3 
1489 2990 2989 1 
1490 3979 3983 2 
1491 3980 3979 1 
1492 3474 3980 3 
1493 4004 3468 3 
1494 4004 4003 1 
1495 2516 4004 3 
1496 2516 2515 1 
1497 3468 2516 3 
1498 3468 3467 1 
1499 4486 3478 3 
1500 4486 4485 1 
1501 3722 3478 3 
1502 3722 3721 1 
1503 3722 4486 3 
1504 3478 3508 3 
1505 3478 3477 1 
1506 3503 3504 1 
1507 3503 3965 2 
1508 3774 4260 3 
1509 3774 3773 1 
1510 3774 4970 3 
1511 3774 4480 3 
1512 3773 4747 2 
1513 4260 4480 3 
1514 4260 4259 1 
1515 4231 4751 2 
1516 4722 4990 3 
1517 4722 4721 1 
1518 5006 5764 3 
1519 5006 5005 1 
1520 4990 5222 3 
1521 4990 4989 1 
1522 5222 4722 3 
1523 5222 5221 1 
1524 4284 5222 3 
1525 4284 4283 1 
1526 4284 4722 3 
1527 4284 4990 3 
1528 5493 5494 1 
1529 4752 5790 3 
1530 4752 4751 1 
1531 5248 5247 1 
1532 5487 5991 2 
1533 5247 5497 2 
1534 5974 226 3 
1535 5974 5973 1 
1536 242 5974 3 
1537 242 226 3 
1538 242 241 1 
1539 236 242 3 
1540 236 5974 3 
1541 236 235 1 
1542 226 236 3 
1543 226 225 1 
1544 6026 5982 3 
1545 6026 6025 1 
1546 508 254 3 
1547 508 507 1 
1548 508 6026 3 
1549 264 192 3 
1550 264 263 1 
1551 264 5720 3 
1552 8 264 3 
1553 8 7 1 
1554 8 5720 3 
1555 243 475 2 
1556 475 476 1 
1557 248 12 3 
1558 248 247 1 
1559 1004 750 3 
1560 1004 1003 1 
1561 988 260 3 
1562 11 6051 2 
1563 247 5753 2 
1564 6051 6052 1 
1565 3 747 2 
1566 983 1245 2 
1567 1730 736 3 
1568 1730 1729 1 
1569 1223 1257 2 
1570 1224 1730 3 
1571 1224 1223 1 
1572 736 1224 3 
1573 736 735 1 
1574 2972 2242 3 
1575 2972 2971 1 
1576 2242 2224 3 
1577 2242 2241 1 
1578 2224 2972 3 
1579 2224 2223 1 
1580 2223 3447 2 
1581 4257 4258 1 
1582 3467 3735 2 
1583 3735 3736 1 
1584 3491 3492 1 
1585 3491 4485 2 
1586 3736 3990 3 
1587 3812 3016 3 
1588 3812 3811 1 
1589 3016 3798 3 
1590 3016 3015 1 
1591 4748 4530 3 
1592 4748 4747 1 
1593 4002 4462 3 
1594 4002 4001 1 
1595 4002 4530 3 
1596 4002 4748 3 
1597 5488 5487 1 
1598 964 5488 3 
1599 963 964 1 
1600 520 30 3 
1601 520 519 1 
1602 520 5516 3 
1603 489 519 2 
1604 249 5517 2 
1605 45 5999 2 
1606 45 46 1 
1607 33 501 2 
1608 501 502 1 
1609 5518 490 3 
1610 5518 5517 1 
1611 5730 5729 1 
1612 46 5730 3 
1613 10 6042 3 
1614 310 309 1 
1615 6052 748 3 
1616 1276 1030 3 
1617 1276 1275 1 
1618 1012 782 3 
1619 1012 1011 1 
1620 1012 1030 3 
1621 1012 1276 3 
1622 782 1276 3 
1623 782 781 1 
1624 711 721 2 
1625 526 522 3 
1626 526 1022 3 
1627 270 522 3 
1628 270 768 3 
1629 270 526 3 
1630 1030 782 3 
1631 1030 1029 1 
1632 764 310 3 
1633 269 270 1 
1634 768 1022 3 
1635 284 283 1 
1636 284 502 3 
1637 516 284 3 
1638 233 269 2 
1639 485 1239 2 
1640 1239 1240 1 
1641 1264 1756 3 
1642 1264 1263 1 
1643 515 516 1 
1644 515 1263 2 
1645 1270 1269 1 
1646 1770 1270 3 
1647 741 742 1 
1648 741 973 2 
1649 1228 1000 3 
1650 1228 1227 1 
1651 1222 1228 3 
1652 1222 1221 1 
1653 1019 1779 2 
1654 509 1243 2 
1655 742 1236 3 
1656 2024 2023 1 
1657 1744 2024 3 
1658 1279 2019 2 
1659 1748 1766 3 
1660 1748 1747 1 
1661 1766 1724 3 
1662 1766 1765 1 
1663 1766 2012 3 
1664 1280 1786 3 
1665 1280 1279 1 
1666 1724 1748 3 
1667 1724 1723 1 
1668 1724 2012 3 
1669 2012 1748 3 
1670 2012 2011 1 
1671 2279 2509 2 
1672 2791 3267 2 
1673 1752 1751 1 
1674 1518 2492 3 
1675 1518 2254 3 
1676 1518 2786 3 
1677 2492 2506 3 
1678 2280 2279 1 
1679 2280 2492 3 
1680 2280 2786 3 
1681 2254 2280 3 
1682 2254 2786 3 
1683 2742 1752 3 
1684 2506 2505 1 
1685 1538 2506 3 
1686 2785 2786 1 
1687 2481 2482 1 
1688 2481 3017 2 
1689 2760 2759 1 
1690 3018 2760 3 
1691 2276 2018 3 
1692 2276 2275 1 
1693 2508 2276 3 
1694 2508 2507 1 
1695 2508 2754 3 
1696 3017 3018 1 
1697 2018 2508 3 
1698 2018 2017 1 
1699 2018 2754 3 
1700 2754 2276 3 
1701 2754 2753 1 
1702 2017 2513 2 
1703 3510 3010 3 
1704 3510 3509 1 
1705 3010 3986 3 
1706 3010 3009 1 
1707 3986 3510 3 
1708 3986 3985 1 
1709 2536 2535 1 
1710 3005 3229 2 
1711 2496 2536 3 
1712 2998 2514 3 
1713 2998 2997 1 
1714 2514 3484 3 
1715 2514 2513 1 
1716 2490 2248 3 
1717 2490 2489 1 
1718 2490 3448 3 
1719 3756 3004 3 
1720 3756 3755 1 
1721 3522 3521 1 
1722 3030 3756 3 
1723 3030 3029 1 
1724 3030 3278 3 
1725 3278 4258 3 
1726 3278 3522 3 
1727 4258 3522 3 
1728 2248 3012 3 
1729 2248 2247 1 
1730 2248 3448 3 
1731 3004 3030 3 
1732 3004 3003 1 
1733 3448 3012 3 
1734 3448 3447 1 
1735 3261 3545 2 
1736 2983 2997 2 
1737 2983 2984 1 
1738 3303 3304 1 
1739 3277 3278 1 
1740 3269 3270 1 
1741 2783 3269 2 
1742 3517 3518 1 
1743 3517 3989 2 
1744 3768 3764 3 
1745 3768 3767 1 
1746 3778 3768 3 
1747 3778 3777 1 
1748 3764 3778 3 
1749 3764 3763 1 
1750 3543 3811 2 
1751 4270 4272 3 
1752 4270 4269 1 
1753 4270 4278 3 