ITEM: TIMESTEP
55440
ITEM: NUMBER OF ENTRIES
7640
ITEM: BOX BOUNDS pp pp ff
0.0000000000000000e+00 7.2168784000000002e+01
0.0000000000000000e+00 7.2168784000000002e+01
0.0000000000000000e+00 1.2000000000000000e+01
ITEM: ENTRIES index c_1[1] c_1[2] c_1[3]
1 473 525 2 
2 525 526 1 
3 474 6014 3 
4 474 473 1 
5 6014 6018 3 
6 6014 6013 1 
7 6018 474 3 
8 6018 6017 1 
9 748 747 1 
10 6052 748 3 
11 526 522 3 
12 526 1022 3 
13 756 755 1 
14 522 521 1 
15 522 768 3 
16 516 284 3 
17 270 522 3 
18 270 768 3 
19 270 526 3 
20 768 1022 3 
21 284 283 1 
22 284 502 3 
23 754 756 3 
24 1239 1240 1 
25 502 1022 3 
26 502 516 3 
27 234 233 1 
28 1737 1738 1 
29 535 1021 2 
30 485 1239 2 
31 1021 1022 1 
32 1020 536 3 
33 1020 1019 1 
34 536 1002 3 
35 536 535 1 
36 536 1758 3 
37 1758 1020 3 
38 1758 1757 1 
39 1002 1020 3 
40 1002 1001 1 
41 1002 1758 3 
42 1747 1757 2 
43 2762 1504 3 
44 2762 2761 1 
45 3224 2214 3 
46 1518 2492 3 
47 2732 1504 3 
48 2732 2731 1 
49 2732 2762 3 
50 1504 2252 3 
51 1504 1503 1 
52 2495 2496 1 
53 2251 2489 2 
54 2279 2509 2 
55 2252 2732 3 
56 2252 2251 1 
57 2252 2762 3 
58 2490 2248 3 
59 2490 2489 1 
60 2490 3448 3 
61 3012 2490 3 
62 3012 3011 1 
63 3448 3012 3 
64 3448 3447 1 
65 3029 4023 2 
66 4024 4023 1 
67 3015 3525 2 
68 4983 4984 1 
69 4983 4253 2 
70 3016 3798 3 
71 3016 3015 1 
72 4237 4238 1 
73 4276 4048 3 
74 4276 4275 1 
75 4500 4276 3 
76 4500 4499 1 
77 4048 4500 3 
78 4048 4047 1 
79 4724 4723 1 
80 4758 4724 3 
81 5507 5508 1 
82 5003 5515 2 
83 6224 250 3 
84 6224 6223 1 
85 250 6008 3 
86 250 249 1 
87 250 1006 3 
88 1006 6224 3 
89 1006 1005 1 
90 1006 6008 3 
91 6008 6224 3 
92 6008 6007 1 
93 5765 6013 2 
94 6001 6002 1 
95 6001 6009 2 
96 309 513 2 
97 24 474 3 
98 24 23 1 
99 24 6018 3 
100 24 6014 3 
101 1042 1244 3 
102 1042 1041 1 
103 1244 778 3 
104 1244 1243 1 
105 1512 534 3 
106 534 533 1 
107 1511 1512 1 
108 1511 1743 2 
109 2011 2741 2 
110 2742 1752 3 
111 2531 2731 2 
112 3256 3255 1 
113 2511 2512 1 
114 2511 2767 2 
115 3022 3021 1 
116 3496 3022 3 
117 3495 3496 1 
118 3271 3495 2 
119 3788 2262 3 
120 3788 3787 1 
121 2261 2771 2 
122 3270 4024 3 
123 3264 3538 3 
124 3264 3263 1 
125 3264 3272 3 
126 3272 3034 3 
127 3272 3271 1 
128 3272 3538 3 
129 3315 4035 2 
130 4012 3770 3 
131 3770 3769 1 
132 4281 4787 2 
133 4525 4789 2 
134 5238 6246 3 
135 5238 5237 1 
136 6246 4488 3 
137 6246 6245 1 
138 4488 5238 3 
139 4488 4487 1 
140 4031 4779 2 
141 29 251 2 
142 6011 6021 2 
143 5772 252 3 
144 5772 5771 1 
145 5768 5772 3 
146 5768 5767 1 
147 5768 6012 3 
148 6012 5772 3 
149 6012 6011 1 
150 252 6012 3 
151 252 251 1 
152 252 5768 3 
153 542 6030 3 
154 542 541 1 
155 38 37 1 
156 47 48 1 
157 47 517 2 
158 289 1759 2 
159 793 794 1 
160 1772 1774 3 
161 1772 1771 1 
162 1282 1772 3 
163 1282 1281 1 
164 1282 1522 3 
165 2546 2272 3 
166 2961 2962 1 
167 2962 3256 3 
168 2296 2314 3 
169 2296 2295 1 
170 2314 1520 3 
171 2314 2313 1 
172 2314 2818 3 
173 2272 2271 1 
174 2818 2296 3 
175 2818 2817 1 
176 1520 2296 3 
177 1520 1519 1 
178 1520 2818 3 
179 3538 3034 3 
180 3538 3537 1 
181 3034 3264 3 
182 3034 3033 1 
183 3746 3745 1 
184 3746 4036 3 
185 4036 4035 1 
186 4026 3746 3 
187 4026 4036 3 
188 3263 3535 2 
189 4011 4012 1 
190 4517 4809 2 
191 4809 4810 1 
192 4790 4789 1 
193 3805 3806 1 
194 4745 5021 2 
195 5033 5034 1 
196 5988 5987 1 
197 5540 542 3 
198 5540 5539 1 
199 5540 5780 3 
200 5780 542 3 
201 5780 5779 1 
202 5780 6030 3 
203 5796 5795 1 
204 240 5796 3 
205 20 1330 3 
206 1330 1329 1 
207 1267 1549 2 
208 1792 2308 3 
209 1792 1791 1 
210 1542 1792 3 
211 1542 1541 1 
212 1542 2308 3 
213 1828 2328 3 
214 1828 1827 1 
215 2328 2574 3 
216 2328 2327 1 
217 1322 2574 3 
218 1322 1321 1 
219 1322 2328 3 
220 1322 1828 3 
221 1321 2545 2 
222 2545 2546 1 
223 2563 2817 2 
224 2313 2775 2 
225 3291 3299 2 
226 3292 3291 1 
227 4025 4026 1 
228 4025 3745 2 
229 3031 3309 2 
230 3309 3310 1 
231 4044 4034 3 
232 4034 4033 1 
233 3312 3311 1 
234 3312 3804 3 
235 4052 4051 1 
236 4052 3312 3 
237 3804 4052 3 
238 4316 4790 3 
239 4037 4038 1 
240 4801 4802 1 
241 4014 5536 3 
242 4014 4013 1 
243 4014 5332 3 
244 4014 5294 3 
245 5294 5536 3 
246 5294 5293 1 
247 5332 5294 3 
248 5332 5331 1 
249 5536 5332 3 
250 5536 5535 1 
251 5032 5054 3 
252 5032 5031 1 
253 5254 5032 3 
254 5254 5253 1 
255 4558 5032 3 
256 4558 4557 1 
257 4558 5054 3 
258 4558 5254 3 
259 5054 5254 3 
260 5054 5053 1 
261 5034 5988 3 
262 6030 5540 3 
263 6030 6029 1 
264 59 6055 2 
265 6055 6056 1 
266 1532 1570 3 
267 1532 1531 1 
268 1532 2542 3 
269 1290 1792 3 
270 1290 1289 1 
271 1290 1542 3 
272 2308 1290 3 
273 2308 2307 1 
274 1301 1569 2 
275 1539 1791 2 
276 1561 1562 1 
277 1571 1781 2 
278 1333 2307 2 
279 2574 1828 3 
280 2574 2573 1 
281 2264 3036 3 
282 2264 2263 1 
283 3036 3296 3 
284 3036 3035 1 
285 3310 3292 3 
286 3305 3581 2 
287 3311 3547 2 
288 3785 3786 1 
289 3785 4043 2 
290 4043 4044 1 
291 4085 4086 1 
292 3047 4085 2 
293 4291 4587 2 
294 3803 3804 1 
295 3803 4051 2 
296 4802 4554 3 
297 4554 4553 1 
298 4767 4783 2 
299 4573 5309 2 
300 294 52 3 
301 294 293 1 
302 294 5548 3 
303 6064 294 3 
304 6064 6063 1 
305 329 330 1 
306 329 561 2 
307 5805 6043 2 
308 590 6094 3 
309 590 589 1 
310 6094 84 3 
311 6094 6093 1 
312 330 6056 3 
313 330 6094 3 
314 60 560 3 
315 60 59 1 
316 60 6056 3 
317 560 66 3 
318 560 559 1 
319 66 60 3 
320 66 65 1 
321 66 328 3 
322 313 559 2 
323 69 589 2 
324 314 70 3 
325 314 313 1 
326 70 798 3 
327 70 69 1 
328 70 72 3 
329 798 314 3 
330 798 797 1 
331 1540 1572 3 
332 1540 1539 1 
333 1302 1540 3 
334 1302 1301 1 
335 1572 1302 3 
336 1572 1571 1 
337 1064 1572 3 
338 1064 1063 1 
339 1064 1540 3 
340 1064 1302 3 
341 2054 2332 3 
342 2054 2053 1 
343 1334 2054 3 
344 1334 1333 1 
345 2332 1334 3 
346 2332 2331 1 
347 1798 1797 1 
348 1562 1798 3 
349 1797 2021 2 
350 3056 2330 3 
351 3056 3055 1 
352 2594 3056 3 
353 2594 2593 1 
354 2330 2594 3 
355 2330 2329 1 
356 1826 2070 3 
357 2809 2810 1 
358 2793 2811 2 
359 3322 3582 3 
360 3322 3321 1 
361 3582 4312 3 
362 3582 3581 1 
363 3062 3582 3 
364 3062 3061 1 
365 3062 4312 3 
366 3062 3322 3 
367 4312 3322 3 
368 4312 4311 1 
369 3568 4058 3 
370 3568 3567 1 
371 3568 4300 3 
372 4058 4292 3 
373 4058 4057 1 
374 4300 4058 3 
375 4300 4299 1 
376 4292 3568 3 
377 4292 4291 1 
378 4292 4300 3 
379 4310 4309 1 
380 4816 4310 3 
381 4309 4543 2 
382 4568 4768 3 
383 4768 4767 1 
384 5043 5317 2 
385 5315 5316 1 
386 64 63 1 
387 5316 6088 3 
388 6062 64 3 
389 5819 6083 2 
390 593 5837 2 
391 6049 6050 1 
392 5551 6049 2 
393 5559 6053 2 
394 5825 5826 1 
395 5825 6063 2 
396 6076 6075 1 
397 6076 6082 3 
398 6096 6076 3 
399 6028 6076 3 
400 6028 6096 3 
401 104 6096 3 
402 104 6028 3 
403 104 6082 3 
404 76 562 3 
405 76 75 1 
406 75 6093 2 
407 327 328 1 
408 72 314 3 
409 72 71 1 
410 72 798 3 
411 1070 1564 3 
412 1070 1069 1 
413 1564 1310 3 
414 1564 1563 1 
415 1310 1070 3 
416 1310 1309 1 
417 1832 1074 3 
418 1832 1831 1 
419 2599 2600 1 
420 2312 2311 1 
421 1845 1846 1 
422 1825 1845 2 
423 1825 1826 1 
424 2045 2046 1 
425 2045 3043 2 
426 2071 2311 2 
427 2558 2832 3 
428 2558 2557 1 
429 2828 3604 3 
430 2828 2827 1 
431 3044 2828 3 
432 3044 3043 1 
433 3604 3044 3 
434 3604 3603 1 
435 2329 3057 2 
436 3554 2820 3 
437 3554 3553 1 
438 3061 4311 2 
439 3067 3321 2 
440 3830 3324 3 
441 3830 3829 1 
442 3847 3829 2 
443 4853 4854 1 
444 91 5327 2 
445 6088 6087 1 
446 5318 5317 1 
447 5544 5318 3 
448 4339 4340 1 
449 5822 5838 3 
450 5838 5837 1 
451 562 300 3 
452 562 561 1 
453 300 76 3 
454 300 299 1 
455 300 324 3 
456 324 76 3 
457 324 323 1 
458 324 562 3 
459 5807 5839 2 
460 6027 6028 1 
461 6027 6079 2 
462 103 104 1 
463 103 335 2 
464 336 822 3 
465 336 335 1 
466 822 316 3 
467 822 821 1 
468 2077 2078 1 
469 1090 1086 3 
470 1090 1089 1 
471 847 848 1 
472 847 2077 2 
473 1091 1103 2 
474 1069 1327 2 
475 1083 1084 1 
476 1083 1563 2 
477 1335 1336 1 
478 1335 1809 2 
479 2063 2064 1 
480 2320 1600 3 
481 1600 1599 1 
482 2367 2368 1 
483 2359 2367 2 
484 1599 2831 2 
485 2816 2082 3 
486 3037 3095 2 
487 2072 2071 1 
488 2338 2072 3 
489 3089 3345 2 
490 3092 3606 3 
491 3092 3091 1 
492 3864 3092 3 
493 3864 3863 1 
494 3090 3089 1 
495 3606 3864 3 
496 3606 3605 1 
497 4338 3090 3 
498 3337 3338 1 
499 4572 3850 3 
500 4572 4571 1 
501 3822 4572 3 
502 3822 3821 1 
503 3822 4610 3 
504 3850 3822 3 
505 3850 3849 1 
506 3850 4610 3 
507 4610 4572 3 
508 4610 4609 1 
509 3833 4571 2 
510 3833 3834 1 
511 4604 4603 1 
512 5345 5346 1 
513 5079 5345 2 
514 5821 5822 1 
515 1350 858 3 
516 1350 1349 1 
517 858 876 3 
518 858 857 1 
519 876 1350 3 
520 876 875 1 
521 586 832 3 
522 586 585 1 
523 5616 906 3 
524 5616 5615 1 
525 906 6144 3 
526 906 905 1 
527 81 82 1 
528 81 563 2 
529 6125 6126 1 
530 837 838 1 
531 837 1093 2 
532 595 1107 2 
533 1573 1574 1 
534 1113 1573 2 
535 2081 2089 2 
536 2082 2081 1 
537 2826 2862 3 
538 2826 2825 1 
539 2095 2096 1 
540 2095 2591 2 
541 3084 2826 3 
542 3084 3083 1 
543 2862 3084 3 
544 2862 2861 1 
545 1819 2577 2 
546 2337 2338 1 
547 2351 2357 2 
548 2357 2358 1 
549 2845 2863 2 
550 2845 2846 1 
551 3091 3335 2 
552 4570 4842 3 
553 4570 4569 1 
554 4570 4590 3 
555 4570 4608 3 
556 4608 4590 3 
557 4608 4607 1 
558 4842 4608 3 
559 4842 4841 1 
560 4590 4842 3 
561 4590 4589 1 
562 4105 4609 2 
563 4569 4575 2 
564 4117 4118 1 
565 4117 4341 2 
566 4341 4342 1 
567 77 78 1 
568 77 823 2 
569 6144 5616 3 
570 6144 6143 1 
571 628 1148 3 
572 5858 5857 1 
573 6126 334 3 
574 334 333 1 
575 140 139 1 
576 1605 1869 2 
577 1869 1870 1 
578 1606 1630 3 
579 1606 1605 1 
580 1836 1606 3 
581 1836 1835 1 
582 1630 1836 3 
583 1630 1629 1 
584 2128 2136 3 
585 2128 2127 1 
586 1618 2128 3 
587 1618 1617 1 
588 1618 2092 3 
589 1618 2136 3 
590 2136 2092 3 
591 2136 2135 1 
592 1849 1850 1 
593 2092 2128 3 
594 2092 2091 1 
595 1590 2376 3 
596 1590 1589 1 
597 1862 1590 3 
598 1862 1861 1 
599 1589 1849 2 
600 2825 3339 2 
601 2096 2366 3 
602 2366 2365 1 
603 2611 2612 1 
604 2611 3083 2 
605 2363 2861 2 
606 2364 2864 3 
607 2364 2363 1 
608 2364 2894 3 
609 2342 2864 3 
610 2342 2341 1 
611 2342 2364 3 
612 2894 2342 3 
613 2894 2893 1 
614 2864 2894 3 
615 2864 2863 1 
616 3862 3624 3 
617 3624 3623 1 
618 2854 2853 1 
619 3365 4365 2 
620 3875 3876 1 
621 3875 4589 2 
622 4121 4122 1 
623 4121 4607 2 
624 3334 3594 3 
625 3334 3333 1 
626 3334 4124 3 
627 4122 4346 3 
628 4122 4342 3 
629 4122 4822 3 
630 4346 4345 1 
631 4342 4822 3 
632 4342 4346 3 
633 5135 5347 2 
634 361 362 1 
635 1148 1147 1 
636 5864 5863 1 
637 653 1147 2 
638 654 864 3 
639 654 653 1 
640 3134 2372 3 
641 3134 3133 1 
642 1132 3134 3 
643 1132 1131 1 
644 2372 1132 3 
645 2372 2371 1 
646 2376 1862 3 
647 2376 2375 1 
648 2131 2132 1 
649 2131 2135 2 
650 2362 1642 3 
651 1617 2855 2 
652 2361 2362 1 
653 2365 2595 2 
654 2595 2596 1 
655 3874 3884 3 
656 3874 3873 1 
657 3884 3124 3 
658 3884 3883 1 
659 3910 3909 1 
660 2336 3884 3 
661 2336 2335 1 
662 2336 3874 3 
663 3372 3910 3 
664 3124 2336 3 
665 3124 3123 1 
666 3124 3874 3 
667 2335 3123 2 
668 3625 3626 1 
669 3625 3851 2 
670 3626 4370 3 
671 3626 4870 3 
672 3626 4104 3 
673 4104 4870 3 
674 4104 4103 1 
675 4370 4104 3 
676 4370 4369 1 
677 4870 4370 3 
678 4870 4869 1 
679 4369 4869 2 
680 4362 4384 3 
681 5611 5841 2 
682 362 5864 3 
683 124 6114 3 
684 124 123 1 
685 124 128 3 
686 390 124 3 
687 390 389 1 
688 128 6114 3 
689 128 127 1 
690 128 390 3 
691 6114 390 3 
692 6114 6113 1 
693 615 1431 2 
694 1372 1371 1 
695 1105 1135 2 
696 6142 1372 3 
697 1642 1641 1 
698 2390 2389 1 
699 3371 3372 1 
700 3618 3642 3 
701 3618 3617 1 
702 3618 3924 3 
703 3924 3642 3 
704 3924 3923 1 
705 3902 3618 3 
706 3902 3901 1 
707 3902 3924 3 
708 3642 3902 3 
709 3642 3641 1 
710 4924 3622 3 
711 3621 4421 2 
712 4103 4115 2 
713 4116 4422 3 
714 4116 4115 1 
715 3614 4116 3 
716 3614 3613 1 
717 4422 3614 3 
718 4422 4421 1 
719 4120 5356 3 
720 4120 4119 1 
721 5122 4120 3 
722 5122 5121 1 
723 5356 5122 3 
724 5356 5355 1 
725 5631 5632 1 
726 5916 5624 3 
727 5916 5915 1 
728 5624 5128 3 
729 5624 5623 1 
730 5910 5624 3 
731 5910 5909 1 
732 5910 5916 3 
733 5128 5916 3 
734 5128 5127 1 
735 5128 5910 3 
736 5612 5611 1 
737 121 123 2 
738 1136 1135 1 
739 1134 1136 3 
740 6141 6142 1 
741 367 368 1 
742 367 6141 2 
743 186 1692 3 
744 186 185 1 
745 410 186 3 
746 410 409 1 
747 1692 410 3 
748 1692 1691 1 
749 622 1144 3 
750 621 622 1 
751 621 2173 2 
752 1162 1898 3 
753 1162 1161 1 
754 1624 1162 3 
755 1624 1623 1 
756 1624 1682 3 
757 1682 1162 3 
758 1682 1681 1 
759 1682 1898 3 
760 1650 1649 1 
761 1662 1650 3 
762 414 1376 3 
763 1937 1938 1 
764 1853 1854 1 
765 1853 2155 2 
766 1911 1919 2 
767 2662 2661 1 
768 2648 2662 3 
769 2622 1364 3 
770 2622 2621 1 
771 1896 1670 3 
772 1896 1895 1 
773 1896 2622 3 
774 1364 1896 3 
775 1364 1363 1 
776 2871 2907 2 
777 3161 4141 2 
778 3161 3162 1 
779 3162 3370 3 
780 3370 3369 1 
781 3369 3867 2 
782 4634 4633 1 
783 4396 4634 3 
784 4407 4408 1 
785 4407 4411 2 
786 3622 3621 1 
787 3617 4111 2 
788 4111 4112 1 
789 4412 4154 3 
790 4412 4411 1 
791 5121 5143 2 
792 4398 4852 3 
793 4398 4397 1 
794 4394 4398 3 
795 4394 4393 1 
796 5395 5631 2 
797 4675 4887 2 
798 4678 4677 1 
799 5394 4678 3 
800 122 5392 3 
801 122 121 1 
802 151 152 1 
803 151 641 2 
804 2129 2175 2 
805 2130 1644 3 
806 2130 2129 1 
807 2418 2156 3 
808 2418 2417 1 
809 2156 2392 3 
810 2156 2155 1 
811 2908 2664 3 
812 2908 2907 1 
813 2664 3170 3 
814 2664 2663 1 
815 3170 2908 3 
816 3170 3169 1 
817 2933 3649 2 
818 3163 3173 2 
819 2914 4142 3 
820 2914 2913 1 
821 3900 2914 3 
822 3900 3899 1 
823 4142 3900 3 
824 4142 4141 1 
825 3665 4147 2 
826 3390 4412 3 
827 3390 3389 1 
828 4154 3390 3 
829 4154 4153 1 
830 5396 5148 3 
831 5396 5395 1 
832 4676 5396 3 
833 4676 4675 1 
834 4662 5396 3 
835 4662 4661 1 
836 4662 4676 3 
837 4662 5148 3 
838 5144 5143 1 
839 5154 5144 3 
840 5409 5410 1 
841 5409 5427 2 
842 5148 4676 3 
843 5148 5147 1 
844 4663 5405 2 
845 5922 892 3 
846 5922 5921 1 
847 892 164 3 
848 892 891 1 
849 164 5922 3 
850 164 163 1 
851 164 690 3 
852 955 956 1 
853 674 430 3 
854 674 673 1 
855 1700 1894 3 
856 1700 1699 1 
857 1922 1700 3 
858 1922 1921 1 
859 1894 1922 3 
860 1894 1893 1 
861 2200 1902 3 
862 2200 2199 1 
863 2200 2404 3 
864 3649 3650 1 
865 2663 2683 2 
866 2899 3673 2 
867 4428 4674 3 
868 4428 4427 1 
869 4428 4430 3 
870 4674 4168 3 
871 4674 4673 1 
872 3378 4134 3 
873 4134 4133 1 
874 5156 4962 3 
875 5156 5155 1 
876 4389 5125 2 
877 5370 5166 3 
878 5370 5369 1 
879 5370 5416 3 
880 5416 5166 3 
881 5416 5415 1 
882 5166 4390 3 
883 5166 5165 1 
884 4390 5370 3 
885 4390 4389 1 
886 4390 5416 3 
887 5660 5956 3 
888 5660 5659 1 
889 5444 5660 3 
890 5444 5443 1 
891 5956 5444 3 
892 5956 5955 1 
893 5406 5405 1 
894 6138 5406 3 
895 5420 5886 3 
896 5420 5419 1 
897 5886 5698 3 
898 5886 5885 1 
899 6167 6189 2 
900 173 5911 2 
901 163 6181 2 
902 669 945 2 
903 946 448 3 
904 946 945 1 
905 440 439 1 
906 448 652 3 
907 448 447 1 
908 172 914 3 
909 172 171 1 
910 172 430 3 
911 172 674 3 
912 6214 440 3 
913 6213 6214 1 
914 655 6213 2 
915 425 447 2 
916 184 183 1 
917 2393 2394 1 
918 1454 1453 1 
919 1666 1454 3 
920 1665 1666 1 
921 1453 1665 2 
922 1886 1885 1 
923 2394 1886 3 
924 1885 2217 2 
925 1935 2927 2 
926 2185 2193 2 
927 1936 2200 3 
928 1936 1935 1 
929 1936 2404 3 
930 2927 2928 1 
931 2684 2902 3 
932 2684 2683 1 
933 2684 3392 3 
934 2902 2198 3 
935 2902 2901 1 
936 2902 3392 3 
937 3392 2198 3 
938 3392 3391 1 
939 2198 2684 3 
940 2198 2197 1 
941 2403 2411 2 
942 3186 2670 3 
943 3186 3185 1 
944 2192 3186 3 
945 2192 2191 1 
946 2192 2674 3 
947 2674 3186 3 
948 2674 2673 1 
949 2900 2899 1 
950 2722 2422 3 
951 2722 2721 1 
952 2422 2688 3 
953 2422 2421 1 
954 2688 2722 3 
955 2688 2687 1 
956 3402 2900 3 
957 2159 2421 2 
958 2159 2160 1 
959 3674 3673 1 
960 3172 3674 3 
961 3707 3708 1 
962 4168 4428 3 
963 4168 4167 1 
964 4430 4168 3 
965 4430 4429 1 
966 4430 4674 3 
967 4423 4961 2 
968 4962 4402 3 
969 4962 4961 1 
970 5209 5210 1 
971 4913 5165 2 
972 5415 5673 2 
973 5673 5674 1 
974 6222 6221 1 
975 5453 5454 1 
976 5183 5453 2 
977 5978 6190 3 
978 5978 5977 1 
979 174 5978 3 
980 174 173 1 
981 6190 174 3 
982 6190 6189 1 
983 451 452 1 
984 451 5993 2 
985 5993 5994 1 
986 406 405 1 
987 652 946 3 
988 652 651 1 
989 452 214 3 
990 214 213 1 
991 6195 6196 1 
992 1180 458 3 
993 1180 1179 1 
994 6196 406 3 
995 458 436 3 
996 458 457 1 
997 436 1180 3 
998 436 435 1 
999 1230 184 3 
1000 936 682 3 
1001 936 935 1 
1002 672 936 3 
1003 672 671 1 
1004 672 710 3 
1005 682 672 3 
1006 682 681 1 
1007 682 710 3 
1008 710 936 3 
1009 710 709 1 
1010 2205 2206 1 
1011 1939 2205 2 
1012 1701 1963 2 
1013 2928 2186 3 
1014 2186 2185 1 
1015 3171 3172 1 
1016 3171 3189 2 
1017 4164 4450 3 
1018 4450 4449 1 
1019 4425 4955 2 
1020 4672 4671 1 
1021 4220 4672 3 
1022 4681 4682 1 
1023 4681 4715 2 
1024 4956 3932 3 
1025 4956 4955 1 
1026 3932 3934 3 
1027 3932 3931 1 
1028 3934 4956 3 
1029 3934 3933 1 
1030 3694 4956 3 
1031 3694 3693 1 
1032 3694 3934 3 
1033 3694 3932 3 
1034 5189 5201 2 
1035 4216 4684 3 
1036 4216 4215 1 
1037 4216 4424 3 
1038 4162 4216 3 
1039 4162 4161 1 
1040 4162 4424 3 
1041 4424 4684 3 
1042 4424 4423 1 
1043 4684 4162 3 
1044 4684 4683 1 
1045 3937 4185 2 
1046 4185 4186 1 
1047 4697 5457 2 
1048 5457 5458 1 
1049 5210 6222 3 
1050 5160 4414 3 
1051 5160 5159 1 
1052 4914 3938 3 
1053 4914 4913 1 
1054 4914 5160 3 
1055 3938 4414 3 
1056 3938 3937 1 
1057 3938 5160 3 
1058 4414 4914 3 
1059 4414 4413 1 
1060 5672 5670 3 
1061 5964 6174 3 
1062 5964 5963 1 
1063 5206 5964 3 
1064 5206 5205 1 
1065 5206 5938 3 
1066 6174 5206 3 
1067 6174 6173 1 
1068 5938 5964 3 
1069 5938 5937 1 
1070 5938 6174 3 
1071 5426 5184 3 
1072 196 194 3 
1073 194 193 1 
1074 221 222 1 
1075 694 693 1 
1076 428 694 3 
1077 222 178 3 
1078 178 177 1 
1079 6199 6200 1 
1080 1217 1941 2 
1081 1942 1964 3 
1082 1942 1941 1 
1083 1964 1720 3 
1084 1964 1963 1 
1085 1720 1719 1 
1086 1200 1960 3 
1087 1200 1199 1 
1088 1200 1954 3 
1089 1954 1702 3 
1090 1954 1953 1 
1091 1954 1960 3 
1092 1702 1200 3 
1093 1702 1701 1 
1094 1960 1702 3 
1095 1960 1959 1 
1096 2195 2196 1 
1097 2195 2207 2 
1098 3201 3202 1 
1099 2959 2960 1 
1100 2959 3201 2 
1101 2451 2452 1 
1102 2451 2939 2 
1103 2924 2923 1 
1104 3202 2924 3 
1105 2930 3190 3 
1106 3190 3189 1 
1107 3928 3458 3 
1108 3928 3927 1 
1109 3712 3928 3 
1110 3712 3711 1 
1111 3719 3931 2 
1112 4163 4164 1 
1113 3939 4163 2 
1114 4198 3960 3 
1115 4198 4197 1 
1116 3960 4194 3 
1117 3960 3959 1 
1118 3960 4208 3 
1119 4194 4198 3 
1120 4194 4193 1 
1121 4194 4208 3 
1122 4686 4716 3 
1123 4716 4715 1 
1124 3933 3959 2 
1125 5201 5202 1 
1126 4215 4437 2 
1127 4710 4709 1 
1128 5202 4710 3 
1129 4683 4945 2 
1130 4161 5199 2 
1131 4698 4448 3 
1132 4698 4697 1 
1133 4210 4698 3 
1134 4210 4209 1 
1135 4448 4210 3 
1136 4448 4447 1 
1137 5714 5713 1 
1138 5967 6173 2 
1139 462 198 3 
1140 198 197 1 
1141 461 462 1 
1142 6164 5486 3 
1143 6164 6163 1 
1144 923 924 1 
1145 1458 1470 3 
1146 1458 1457 1 
1147 1470 1216 3 
1148 1470 1469 1 
1149 472 471 1 
1150 720 968 3 
1151 720 719 1 
1152 1710 720 3 
1153 1710 1709 1 
1154 968 1710 3 
1155 968 967 1 
1156 1684 1716 3 
1157 1684 1683 1 
1158 1204 1684 3 
1159 1204 1203 1 
1160 1716 1204 3 
1161 1716 1715 1 
1162 2208 2207 1 
1163 2208 3432 3 
1164 2208 2702 3 
1165 3459 3957 2 
1166 3706 3724 3 
1167 3706 3705 1 
1168 3724 3940 3 
1169 3724 3723 1 
1170 3940 3706 3 
1171 3940 3939 1 
1172 3976 3460 3 
1173 3460 3459 1 
1174 4208 4198 3 
1175 4208 4207 1 
1176 4685 4686 1 
1177 5452 5200 3 
1178 5452 5451 1 
1179 5200 4466 3 
1180 5200 5199 1 
1181 4206 4988 3 
1182 4206 4205 1 
1183 4438 4206 3 
1184 4438 4437 1 
1185 4438 4474 3 
1186 4466 5452 3 
1187 4466 4465 1 
1188 4474 4206 3 
1189 4474 4473 1 
1190 4474 4988 3 
1191 4988 4438 3 
1192 4988 4987 1 
1193 4203 4205 2 
1194 4479 4713 2 
1195 4209 5451 2 
1196 4992 4714 3 
1197 4992 4991 1 
1198 5713 6005 2 
1199 179 461 2 
1200 5676 6164 3 
1201 5676 5675 1 
1202 228 6220 3 
1203 455 1469 2 
1204 1468 1726 3 
1205 1459 1709 2 
1206 1945 2227 2 
1207 3431 3432 1 
1208 2965 2969 2 
1209 2450 3208 3 
1210 2450 2449 1 
1211 2190 3984 3 
1212 2190 2450 3 
1213 2190 2189 1 
1214 2699 3715 2 
1215 3984 2450 3 
1216 3984 3983 1 
1217 3482 4202 3 
1218 3482 3481 1 
1219 3462 3482 3 
1220 3462 3461 1 
1221 3494 3758 3 
1222 3494 3493 1 
1223 3758 3966 3 
1224 3758 3757 1 
1225 3966 3494 3 
1226 3966 3965 1 
1227 3944 3714 3 
1228 3714 3713 1 
1229 4970 4480 3 
1230 4970 4969 1 
1231 4015 4016 1 
1232 4480 4260 3 
1233 4480 4479 1 
1234 4260 4970 3 
1235 4260 4259 1 
1236 4501 4991 2 
1237 5459 5469 2 
1238 6006 5460 3 
1239 6006 6005 1 
1240 5460 5756 3 
1241 5460 5459 1 
1242 5756 6006 3 
1243 5756 5755 1 
1244 5995 5996 1 
1245 463 971 2 
1246 6025 6026 1 
1247 971 972 1 
1248 225 6025 2 
1249 6000 5456 3 
1250 6000 5999 1 
1251 45 46 1 
1252 45 5999 2 
1253 5456 4998 3 
1254 5456 5455 1 
1255 4998 6000 3 
1256 4998 4997 1 
1257 750 734 3 
1258 750 749 1 
1259 734 1004 3 
1260 734 733 1 
1261 734 972 3 
1262 972 1004 3 
1263 1004 750 3 
1264 1004 1003 1 
1265 988 260 3 
1266 1196 966 3 
1267 1196 1195 1 
1268 990 738 3 
1269 990 989 1 
1270 990 1196 3 
1271 738 1196 3 
1272 738 737 1 
1273 966 738 3 
1274 966 965 1 
1275 966 990 3 
1276 1725 1726 1 
1277 1729 2229 2 
1278 1253 1981 2 
1279 1993 1994 1 
1280 1993 2729 2 
1281 2229 2230 1 
1282 1491 1735 2 
1283 1994 2240 3 
1284 1995 2745 2 
1285 2745 2746 1 
1286 2737 2738 1 
1287 2737 3463 2 
1288 1996 1995 1 
1289 2746 1996 3 
1290 2953 2954 1 
1291 2189 2953 2 
1292 2231 2232 1 
1293 3453 3454 1 
1294 4016 4232 3 
1295 3773 3774 1 
1296 3773 4747 2 
1297 4232 4231 1 
1298 4259 4721 2 
1299 4231 4751 2 
1300 3751 3752 1 
1301 4731 5243 2 
1302 4990 5222 3 
1303 4990 4989 1 
1304 5233 5509 2 
1305 4722 4990 3 
1306 4722 4721 1 
1307 4284 5222 3 
1308 4284 4283 1 
1309 4284 4722 3 
1310 4284 4990 3 
1311 5248 5247 1 
1312 5246 5248 3 
1313 254 508 3 
1314 254 253 1 
1315 5974 226 3 
1316 5974 5973 1 
1317 226 236 3 
1318 226 225 1 
1319 242 5974 3 
1320 242 226 3 
1321 242 241 1 
1322 236 242 3 
1323 236 5974 3 
1324 236 235 1 
1325 5982 254 3 
1326 5982 5981 1 
1327 508 5982 3 
1328 508 507 1 
1329 4997 5729 2 
1330 5729 5730 1 
1331 475 476 1 
1332 243 475 2 
1333 5981 6007 2 
1334 5731 5732 1 
1335 476 972 3 
1336 260 259 1 
1337 260 476 3 
1338 515 516 1 
1339 515 1263 2 
1340 259 753 2 
1341 753 754 1 
1342 5 733 2 
1343 469 737 2 
1344 1240 6 3 
1345 6 5 1 
1346 1492 1254 3 
1347 1492 1491 1 
1348 2246 1492 3 
1349 2246 2245 1 
1350 1232 1492 3 
1351 1232 1231 1 
1352 1232 2246 3 
1353 1254 1232 3 
1354 1254 1253 1 
1355 1254 2246 3 
1356 1717 1718 1 
1357 1538 2506 3 
1358 2506 2505 1 
1359 2214 2213 1 
1360 2509 2510 1 
1361 2496 2536 3 
1362 2536 2535 1 
1363 2248 3012 3 
1364 2248 2247 1 
1365 2248 3448 3 
1366 2223 3447 2 
1367 3503 3504 1 
1368 4254 4253 1 
1369 4984 4254 3 
1370 4001 4002 1 
1371 4235 4236 1 
1372 4235 4461 2 
1373 4736 5244 3 
1374 4223 4224 1 
1375 4223 4757 2 
1376 4757 4758 1 
1377 4748 4530 3 
1378 4748 4747 1 
1379 4256 4255 1 
1380 5244 5243 1 
1381 5790 5504 3 
1382 5790 5789 1 
1383 5504 4752 3 
1384 5504 5503 1 
1385 4752 5790 3 
1386 4752 4751 1 
1387 4236 4256 3 
1388 4283 4975 2 
1389 4489 4490 1 
1390 4483 4489 2 
1391 5508 4994 3 
1392 4994 4993 1 
1393 6228 5480 3 
1394 6228 6227 1 
1395 5455 6223 2 
1396 266 265 1 
1397 5732 266 3 
1398 6002 244 3 
1399 244 243 1 
1400 5784 6038 3 
1401 249 5517 2 
1402 6038 6037 1 
1403 5513 5514 1 
1404 5513 5733 2 
1405 310 309 1 
1406 764 310 3 
1407 488 26 3 
1408 488 487 1 
1409 233 269 2 
1410 269 270 1 
1411 9 10 1 
1412 9 267 2 
1413 506 234 3 
1414 267 268 1 
1415 1011 1483 2 
1416 755 1499 2 
1417 1242 486 3 
1418 486 485 1 
1419 3 747 2 
1420 509 1243 2 
1421 1786 1008 3 
1422 1786 1785 1 
1423 297 1749 2 
1424 1280 1786 3 
1425 1280 1279 1 
1426 1019 1779 2 
1427 1508 1280 3 
1428 1508 1507 1 
1429 1508 1786 3 
1430 1279 2019 2 
1431 1525 1765 2 
1432 1748 1766 3 
1433 1748 1747 1 
1434 1766 1724 3 
1435 1766 1765 1 
1436 1766 2012 3 
1437 1724 1748 3 
1438 1724 1723 1 
1439 1724 2012 3 
1440 2012 1748 3 
1441 2012 2011 1 
1442 1271 1517 2 
1443 1517 1518 1 
1444 2254 2280 3 
1445 2254 2786 3 
1446 2280 2279 1 
1447 2280 2492 3 
1448 2280 2786 3 
1449 2491 2492 1 
1450 1751 2769 2 
1451 3223 3224 1 
1452 2481 2482 1 
1453 2481 3017 2 
1454 3017 3018 1 
1455 3010 3986 3 
1456 3010 3009 1 
1457 2992 2778 3 
1458 2992 2991 1 
1459 2992 3002 3 
1460 3002 2778 3 
1461 3002 3001 1 
1462 3002 3006 3 
1463 3006 2992 3 
1464 3006 3005 1 
1465 2778 3006 3 
1466 2778 2777 1 
1467 3510 3010 3 
1468 3510 3509 1 
1469 3986 3510 3 
1470 3986 3985 1 
1471 3303 3304 1 
1472 3227 3303 2 
1473 2286 2540 3 
1474 2286 2285 1 
1475 2286 3740 3 
1476 2780 2286 3 
1477 2780 2779 1 
1478 2780 3740 3 
1479 2995 3009 2 
1480 2998 2514 3 
1481 2998 2997 1 
1482 3484 2998 3 
1483 3484 3483 1 
1484 3261 3545 2 
1485 2514 3484 3 
1486 2514 2513 1 
1487 3518 3246 3 
1488 3278 4258 3 
1489 3030 3756 3 
1490 3030 3029 1 
1491 3030 3278 3 
1492 2983 2984 1 
1493 2983 2997 2 
1494 3004 3030 3 
1495 3004 3003 1 
1496 3756 3004 3 
1497 3756 3755 1 
1498 4258 3522 3 
1499 3760 3238 3 
1500 3760 3759 1 
1501 3759 3767 2 
1502 3290 2784 3 
1503 3502 3501 1 
1504 3992 3502 3 
1505 3768 3764 3 
1506 3768 3767 1 
1507 3527 3528 1 
1508 3527 3777 2 
1509 3505 3765 2 
1510 4017 4285 2 
1511 4285 4286 1 
1512 3511 3512 1 
1513 3543 3811 2 
1514 3798 3812 3 
1515 3798 3797 1 
1516 3812 3016 3 
1517 3812 3811 1 
1518 4749 4750 1 
1519 4749 5045 2 
1520 3769 4503 2 
1521 4271 4743 2 
1522 4238 4228 3 
1523 3506 4504 3 
1524 3506 3505 1 
1525 4245 4529 2 
1526 4018 3506 3 
1527 4018 4017 1 
1528 4018 4726 3 
1529 4228 4227 1 
1530 4290 4744 3 
1531 4290 4289 1 
1532 4250 4249 1 
1533 4504 4018 3 
1534 4504 4503 1 
1535 4504 4726 3 
1536 4726 3506 3 
1537 4726 4725 1 
1538 4289 4497 2 
1539 4509 4727 2 
1540 4785 4786 1 
1541 4510 5530 3 
1542 4510 4509 1 
1543 4776 4510 3 
1544 4776 4775 1 
1545 5259 5260 1 
1546 5259 5737 2 
1547 4261 4267 2 
1548 4243 4495 2 
1549 4775 5011 2 
1550 5530 4776 3 
1551 5530 5529 1 
1552 4493 4735 2 
1553 4275 5525 2 
1554 5000 4999 1 
1555 4262 4516 3 
1556 4262 4261 1 
1557 4735 4736 1 
1558 4999 5237 2 
1559 4515 4741 2 
1560 5011 5012 1 
1561 5738 4494 3 
1562 5738 5737 1 
1563 5526 5738 3 
1564 5526 5525 1 
1565 5526 5744 3 
1566 4494 5744 3 
1567 4494 4493 1 
1568 4494 5526 3 
1569 5744 5738 3 
1570 5744 5743 1 
1571 4781 5529 2 
1572 5481 5482 1 
1573 4976 4975 1 
1574 5500 4976 3 
1575 4778 4496 3 
1576 4778 4777 1 
1577 5013 5014 1 
1578 4773 5013 2 
1579 27 28 1 
1580 27 6033 2 
1581 4766 5762 3 
1582 4766 4765 1 
1583 5255 5747 2 
1584 5783 5795 2 
1585 5783 5784 1 
1586 520 30 3 
1587 520 519 1 
1588 520 5516 3 
1589 6016 520 3 
1590 6016 6015 1 
1591 5516 6016 3 
1592 5516 5515 1 
1593 30 6016 3 
1594 30 29 1 
1595 30 5516 3 
1596 6010 6009 1 
1597 6010 5766 3 
1598 34 248 3 
1599 34 33 1 
1600 34 6022 3 
1601 22 512 3 
1602 22 274 3 
1603 22 6242 3 
1604 6242 6010 3 
1605 512 511 1 
1606 512 274 3 
1607 512 5766 3 
1608 5766 5765 1 
1609 5766 6242 3 
1610 6022 248 3 
1611 6022 6021 1 
1612 26 256 3 
1613 26 25 1 
1614 274 273 1 
1615 274 6010 3 
1616 248 12 3 
1617 248 247 1 
1618 12 34 3 
1619 12 11 1 
1620 12 6022 3 
1621 256 488 3 
1622 256 255 1 
1623 6051 6052 1 
1624 11 6051 2 
1625 501 502 1 
1626 33 501 2 
1627 787 1029 2 
1628 763 764 1 
1629 271 763 2 
1630 21 22 1 
1631 21 511 2 
1632 521 1067 2 
1633 285 1275 2 
1634 767 768 1 
1635 767 1043 2 
1636 1067 1068 1 
1637 1032 1038 3 
1638 1032 1031 1 
1639 1038 772 3 
1640 1038 1037 1 
1641 1743 1744 1 
1642 1526 320 3 
1643 1526 1525 1 
1644 778 1042 3 
1645 778 777 1 
1646 320 762 3 
1647 320 319 1 
1648 319 1545 2 
1649 1744 2024 3 
1650 2741 2742 1 
1651 1723 2253 2 
1652 2503 2504 1 
1653 2503 2739 2 
1654 2266 2770 3 
1655 2266 2265 1 
1656 2274 2266 3 
1657 2274 2273 1 
1658 2274 2294 3 
1659 2274 2770 3 
1660 2770 2294 3 
1661 2770 2769 1 
1662 2294 2266 3 
1663 2294 2293 1 
1664 2253 2254 1 
1665 1752 1751 1 
1666 2982 2981 1 
1667 2504 2740 3 
1668 2504 2982 3 
1669 1767 1768 1 
1670 1503 2761 2 
1671 2740 2739 1 
1672 2740 2982 3 
1673 2764 2298 3 
1674 2764 2763 1 
1675 1519 2275 2 
1676 2785 2786 1 
1677 2276 2018 3 
1678 2276 2275 1 
1679 2508 2276 3 
1680 2508 2507 1 
1681 2508 2754 3 
1682 2791 3267 2 
1683 3268 2768 3 
1684 3268 3267 1 
1685 2768 2792 3 
1686 2768 2767 1 
1687 2792 3268 3 
1688 2792 2791 1 
1689 3784 3783 1 
1690 4257 4258 1 
1691 2518 3262 3 
1692 2518 2517 1 
1693 2518 3788 3 
1694 3985 4257 2 
1695 2779 3007 2 
1696 2262 3262 3 
1697 2262 2261 1 
1698 2262 2518 3 
1699 3262 3788 3 
1700 3262 3261 1 
1701 2301 2302 1 
1702 2301 2797 2 
1703 3524 2790 3 
1704 3524 3523 1 
1705 3316 2524 3 
1706 3316 3315 1 
1707 3316 3790 3 
1708 3522 3521 1 
1709 3790 3534 3 
1710 3790 3789 1 
1711 3269 3270 1 
1712 3778 3768 3 
1713 3778 3777 1 
1714 3764 3778 3 
1715 3764 3763 1 
1716 3534 3316 3 
1717 3534 3533 1 
1718 2784 2783 1 
1719 2524 3534 3 
1720 2524 2523 1 
1721 2524 3790 3 
1722 2783 3269 2 
1723 4028 3544 3 
1724 4028 4027 1 
1725 3289 3290 1 
1726 3544 4046 3 
1727 3544 3543 1 
1728 2781 3289 2 
1729 3069 3070 1 
1730 4046 4028 3 
1731 4046 4045 1 
1732 3014 3544 3 
1733 3014 3013 1 
1734 3014 4028 3 
1735 3014 4046 3 
1736 3512 3526 3 
1737 3526 3525 1 
1738 3013 4513 2 
1739 4286 4514 3 
1740 4514 4513 1 
1741 4523 5035 2 
1742 4278 4266 3 
1743 4278 4277 1 
1744 4272 4278 3 
1745 4272 4271 1 
1746 4270 4272 3 
1747 4270 4269 1 
1748 4270 4278 3 
1749 4266 4272 3 
1750 4266 4265 1 
1751 4266 4270 3 
1752 4056 4055 1 