ITEM: TIMESTEP
77880
ITEM: NUMBER OF ENTRIES
8027
ITEM: BOX BOUNDS pp pp ff
0.0000000000000000e+00 7.2168784000000002e+01
0.0000000000000000e+00 7.2168784000000002e+01
0.0000000000000000e+00 1.2000000000000000e+01
ITEM: ENTRIES index c_1[1] c_1[2] c_1[3]
1 248 12 3 
2 248 247 1 
3 6022 248 3 
4 6022 6021 1 
5 12 34 3 
6 12 11 1 
7 12 6022 3 
8 34 248 3 
9 34 33 1 
10 34 6022 3 
11 243 475 2 
12 11 6051 2 
13 244 243 1 
14 6051 6052 1 
15 6002 244 3 
16 1024 1023 1 
17 268 1024 3 
18 6052 748 3 
19 748 747 1 
20 233 269 2 
21 1769 1770 1 
22 1723 2253 2 
23 2253 2254 1 
24 2785 2786 1 
25 2001 2002 1 
26 2001 2485 2 
27 2792 3268 3 
28 2792 2791 1 
29 3268 2768 3 
30 3268 3267 1 
31 2768 2792 3 
32 2768 2767 1 
33 2223 3447 2 
34 2261 2771 2 
35 2518 3262 3 
36 2518 2517 1 
37 2518 3788 3 
38 3788 2262 3 
39 3788 3787 1 
40 3277 3278 1 
41 2262 3262 3 
42 2262 2261 1 
43 2262 2518 3 
44 4258 3522 3 
45 3278 4258 3 
46 3278 3522 3 
47 3543 3811 2 
48 4245 4529 2 
49 5238 6246 3 
50 5238 5237 1 
51 5763 6245 2 
52 5244 5243 1 
53 4736 5244 3 
54 5014 5502 3 
55 6019 6225 2 
56 29 251 2 
57 6011 6021 2 
58 33 501 2 
59 501 502 1 
60 520 30 3 
61 520 519 1 
62 520 5516 3 
63 522 521 1 
64 522 768 3 
65 536 1002 3 
66 536 535 1 
67 536 1758 3 
68 1002 1020 3 
69 1002 1001 1 
70 1002 1758 3 
71 1020 536 3 
72 1020 1019 1 
73 1758 1020 3 
74 1758 1757 1 
75 2525 2785 2 
76 2486 2485 1 
77 2486 2774 3 
78 2526 2764 3 
79 2526 2525 1 
80 2271 2763 2 
81 2511 2512 1 
82 2511 2767 2 
83 4011 4012 1 
84 3992 3502 3 
85 3502 3501 1 
86 4270 4272 3 
87 4270 4269 1 
88 4270 4278 3 
89 4278 4266 3 
90 4278 4277 1 
91 4266 4272 3 
92 4266 4265 1 
93 4266 4270 3 
94 4272 4278 3 
95 4272 4271 1 
96 4020 4244 3 
97 4244 4243 1 
98 5520 5496 3 
99 5520 5519 1 
100 5278 5520 3 
101 5278 5277 1 
102 5496 5278 3 
103 5496 5495 1 
104 5765 6013 2 
105 521 1067 2 
106 1067 1068 1 
107 38 37 1 
108 792 554 3 
109 792 791 1 
110 792 1068 3 
111 546 792 3 
112 546 545 1 
113 546 1068 3 
114 554 546 3 
115 554 553 1 
116 554 1068 3 
117 2818 2296 3 
118 2818 2817 1 
119 3046 2038 3 
120 4026 3746 3 
121 4026 4036 3 
122 3263 3535 2 
123 3746 3745 1 
124 3746 4036 3 
125 4036 4035 1 
126 4012 3770 3 
127 4517 4809 2 
128 4809 4810 1 
129 3991 3992 1 
130 3770 3769 1 
131 4525 4789 2 
132 5277 5283 2 
133 18 5788 3 
134 5780 542 3 
135 5780 5779 1 
136 5780 6030 3 
137 1330 1329 1 
138 542 6030 3 
139 542 541 1 
140 5540 542 3 
141 5540 5539 1 
142 5540 5780 3 
143 6030 5540 3 
144 6030 6029 1 
145 20 1330 3 
146 1278 1268 3 
147 1278 1277 1 
148 1278 1760 3 
149 1278 1536 3 
150 1536 1268 3 
151 1536 1535 1 
152 1760 1536 3 
153 1760 1759 1 
154 1268 1760 3 
155 1268 1267 1 
156 1267 1549 2 
157 289 1759 2 
158 1542 1792 3 
159 1542 1541 1 
160 1542 2308 3 
161 1292 2284 3 
162 1292 1291 1 
163 1778 1292 3 
164 1778 1777 1 
165 2563 2817 2 
166 2551 2552 1 
167 2552 3784 3 
168 3784 3783 1 
169 2038 2037 1 
170 3292 3310 3 
171 3292 3291 1 
172 3792 3292 3 
173 3792 3791 1 
174 3310 3792 3 
175 3310 3309 1 
176 3031 3309 2 
177 3804 4052 3 
178 4052 4051 1 
179 4052 3312 3 
180 3312 3311 1 
181 3312 3804 3 
182 4042 3996 3 
183 4042 4041 1 
184 3996 4006 3 
185 3996 3995 1 
186 4006 4042 3 
187 4006 4005 1 
188 4801 4802 1 
189 4316 4790 3 
190 4790 4789 1 
191 5261 5987 2 
192 17 18 1 
193 31 773 2 
194 5805 6043 2 
195 562 300 3 
196 562 561 1 
197 76 562 3 
198 76 75 1 
199 75 6093 2 
200 329 330 1 
201 329 561 2 
202 313 559 2 
203 72 314 3 
204 72 71 1 
205 72 798 3 
206 798 314 3 
207 798 797 1 
208 1792 2308 3 
209 1792 1791 1 
210 2308 1290 3 
211 2308 2307 1 
212 1290 1792 3 
213 1290 1289 1 
214 1290 1542 3 
215 2599 2600 1 
216 1539 1791 2 
217 1301 1569 2 
218 1334 2054 3 
219 1334 1333 1 
220 2054 2332 3 
221 2054 2053 1 
222 2332 1334 3 
223 2332 2331 1 
224 2328 2574 3 
225 2328 2327 1 
226 2564 2776 3 
227 2564 2563 1 
228 2776 2044 3 
229 2776 2775 1 
230 3291 3299 2 
231 4763 5023 2 
232 4768 4767 1 
233 4568 4768 3 
234 5814 5302 3 
235 5814 5813 1 
236 5302 5044 3 
237 5302 5301 1 
238 5044 5814 3 
239 5044 5043 1 
240 5043 5317 2 
241 5318 5317 1 
242 5806 6054 3 
243 5806 5805 1 
244 5806 5826 3 
245 70 798 3 
246 70 69 1 
247 70 72 3 
248 314 70 3 
249 314 313 1 
250 1552 1808 3 
251 1808 1807 1 
252 1551 1552 1 
253 1333 2307 2 
254 1540 1572 3 
255 1540 1539 1 
256 1572 1302 3 
257 1572 1571 1 
258 1302 1540 3 
259 1302 1301 1 
260 1064 1572 3 
261 1064 1063 1 
262 1064 1540 3 
263 1064 1302 3 
264 1795 2053 2 
265 2291 2353 2 
266 2353 2354 1 
267 1799 2069 2 
268 1825 1845 2 
269 1825 1826 1 
270 3074 3086 3 
271 3074 3073 1 
272 3073 2843 2 
273 2562 3086 3 
274 2562 2561 1 
275 2562 3074 3 
276 2822 3280 3 
277 2822 2821 1 
278 3300 2822 3 
279 3300 3299 1 
280 3280 3300 3 
281 3280 3279 1 
282 2810 2036 3 
283 2036 2035 1 
284 3563 3831 2 
285 3067 3321 2 
286 3331 3567 2 
287 4291 4587 2 
288 4309 4543 2 
289 5301 6087 2 
290 5819 6083 2 
291 5083 5089 2 
292 300 76 3 
293 300 299 1 
294 300 324 3 
295 5838 5837 1 
296 5822 5838 3 
297 5559 6053 2 
298 345 575 2 
299 576 346 3 
300 576 575 1 
301 1076 68 3 
302 1076 1075 1 
303 610 1076 3 
304 610 609 1 
305 610 826 3 
306 571 1559 2 
307 1560 1078 3 
308 1560 1559 1 
309 1078 844 3 
310 1078 1077 1 
311 844 1560 3 
312 844 843 1 
313 1313 1807 2 
314 2581 2582 1 
315 817 2319 2 
316 2823 2824 1 
317 2354 2582 3 
318 2354 3038 3 
319 1790 2058 3 
320 1790 1789 1 
321 1790 2354 3 
322 3038 3037 1 
323 2582 2824 3 
324 2824 3038 3 
325 2046 2312 3 
326 2046 2582 3 
327 2058 2306 3 
328 2058 2057 1 
329 2058 3352 3 
330 2306 1790 3 
331 2306 2305 1 
332 2306 3352 3 
333 2312 2311 1 
334 1826 2070 3 
335 2070 2069 1 
336 2070 3352 3 
337 3037 3095 2 
338 2071 2311 2 
339 1846 2580 3 
340 2580 2579 1 
341 3554 2820 3 
342 3554 3553 1 
343 2820 2794 3 
344 2820 2819 1 
345 2794 3554 3 
346 2794 2793 1 
347 2330 2594 3 
348 2330 2329 1 
349 2594 3056 3 
350 2594 2593 1 
351 3056 2330 3 
352 3056 3055 1 
353 2035 3587 2 
354 3584 3583 1 
355 3596 3584 3 
356 3583 3599 2 
357 3323 3775 2 
358 3848 3830 3 
359 3848 3847 1 
360 3324 3848 3 
361 3324 3323 1 
362 3830 3324 3 
363 3830 3829 1 
364 3822 4572 3 
365 3822 3821 1 
366 3822 4610 3 
367 3568 4058 3 
368 3568 3567 1 
369 3568 4300 3 
370 4292 3568 3 
371 4292 4291 1 
372 4292 4300 3 
373 4300 4058 3 
374 4300 4299 1 
375 4572 3850 3 
376 4572 4571 1 
377 3850 3822 3 
378 3850 3849 1 
379 3850 4610 3 
380 4058 4292 3 
381 4058 4057 1 
382 3833 4571 2 
383 3833 3834 1 
384 3835 4057 2 
385 4544 4798 3 
386 4544 4543 1 
387 3836 4544 3 
388 3836 3835 1 
389 4798 3836 3 
390 4798 4797 1 
391 5090 5052 3 
392 5089 5090 1 
393 6084 5816 3 
394 6084 6083 1 
395 5610 74 3 
396 5610 5609 1 
397 5610 5816 3 
398 5610 6084 3 
399 5840 6072 3 
400 5840 5839 1 
401 346 580 3 
402 346 345 1 
403 346 810 3 
404 580 576 3 
405 580 579 1 
406 580 810 3 
407 810 576 3 
408 810 809 1 
409 564 563 1 
410 564 840 3 
411 840 839 1 
412 82 564 3 
413 82 840 3 
414 1077 1367 2 
415 841 843 2 
416 1367 1368 1 
417 1083 1563 2 
418 1586 1585 1 
419 1342 1596 3 
420 1342 1860 3 
421 1574 1586 3 
422 1574 1860 3 
423 1368 1596 3 
424 842 1582 3 
425 842 841 1 
426 842 848 3 
427 2319 2320 1 
428 2320 1600 3 
429 2320 2368 3 
430 3351 3352 1 
431 2045 2046 1 
432 2045 3043 2 
433 3044 2828 3 
434 3044 3043 1 
435 3328 2570 3 
436 3328 3327 1 
437 3060 3328 3 
438 3060 3059 1 
439 2570 3060 3 
440 2570 2569 1 
441 2570 2838 3 
442 2838 3060 3 
443 2838 2837 1 
444 2838 3328 3 
445 3600 3599 1 
446 3847 3829 2 
447 4092 3600 3 
448 4610 4572 3 
449 4610 4609 1 
450 3849 4601 2 
451 4601 4602 1 
452 4105 4609 2 
453 3834 4114 3 
454 4604 5346 3 
455 4604 4603 1 
456 5801 6103 2 
457 5106 4580 3 
458 5106 5105 1 
459 5106 5376 3 
460 4580 5092 3 
461 4580 4579 1 
462 5052 5051 1 
463 115 857 2 
464 874 873 1 
465 116 115 1 
466 376 874 3 
467 839 1337 2 
468 81 82 1 
469 81 563 2 
470 1113 1573 2 
471 1338 1114 3 
472 1338 1337 1 
473 1573 1574 1 
474 1596 1595 1 
475 1336 1860 3 
476 1336 1596 3 
477 1336 1342 3 
478 1084 842 3 
479 1084 1083 1 
480 1582 1084 3 
481 1582 1581 1 
482 848 1368 3 
483 848 1586 3 
484 1335 1336 1 
485 1335 1809 2 
486 2064 2368 3 
487 2064 2120 3 
488 2090 2074 3 
489 2090 2089 1 
490 1810 2090 3 
491 1810 1809 1 
492 1812 1810 3 
493 1812 1811 1 
494 1812 2074 3 
495 1812 2090 3 
496 2074 1810 3 
497 2074 2073 1 
498 1600 1599 1 
499 1600 2064 3 
500 1600 2368 3 
501 2063 2064 1 
502 2081 2089 2 
503 1811 2623 2 
504 2566 2565 1 
505 1850 2566 3 
506 1819 2577 2 
507 2082 2081 1 
508 2816 2082 3 
509 2096 2366 3 
510 2366 2365 1 
511 2364 2864 3 
512 2364 2363 1 
513 2364 2894 3 
514 2342 2864 3 
515 2342 2341 1 
516 2342 2364 3 
517 2864 2894 3 
518 2864 2863 1 
519 2894 2342 3 
520 2894 2893 1 
521 3092 3606 3 
522 3092 3091 1 
523 3606 3864 3 
524 3606 3605 1 
525 3864 3092 3 
526 3864 3863 1 
527 3593 3863 2 
528 4117 4341 2 
529 3594 3366 3 
530 3594 3593 1 
531 3366 3334 3 
532 3366 3365 1 
533 3366 4124 3 
534 3334 3594 3 
535 3334 3333 1 
536 3334 4124 3 
537 3861 3862 1 
538 2841 3333 2 
539 4106 2842 3 
540 4106 4105 1 
541 4106 4350 3 
542 2842 4350 3 
543 2842 2841 1 
544 4350 3088 3 
545 4350 4349 1 
546 3088 2842 3 
547 3088 3087 1 
548 3088 4106 3 
549 4375 4376 1 
550 4375 5375 2 
551 4599 4875 2 
552 4599 4600 1 
553 5360 5120 3 
554 4595 5093 2 
555 5120 5119 1 
556 5376 4580 3 
557 5376 5375 1 
558 4868 6140 3 
559 4868 4867 1 
560 4868 5586 3 
561 4868 5118 3 
562 4600 4596 3 
563 4596 4595 1 
564 5864 5863 1 
565 362 5864 3 
566 361 362 1 
567 5616 906 3 
568 5616 5615 1 
569 5638 586 3 
570 5638 5637 1 
571 586 832 3 
572 586 585 1 
573 832 5638 3 
574 832 831 1 
575 604 620 3 
576 604 603 1 
577 604 866 3 
578 604 6134 3 
579 165 6143 2 
580 349 359 2 
581 1605 1869 2 
582 2092 2128 3 
583 2092 2091 1 
584 2136 2092 3 
585 2136 2135 1 
586 1618 2128 3 
587 1618 1617 1 
588 1618 2092 3 
589 1618 2136 3 
590 2128 2136 3 
591 2128 2127 1 
592 1849 1850 1 
593 1836 1606 3 
594 1836 1835 1 
595 1836 2602 3 
596 1852 1394 3 
597 1852 1851 1 
598 2344 2850 3 
599 2344 2343 1 
600 2344 2608 3 
601 2624 2344 3 
602 2624 2623 1 
603 2608 2624 3 
604 2608 2607 1 
605 2608 2850 3 
606 2850 2624 3 
607 2850 2849 1 
608 1351 2127 2 
609 1867 1868 1 
610 1867 2371 2 
611 2825 3339 2 
612 2815 2816 1 
613 1352 1820 3 
614 1352 1351 1 
615 1402 1352 3 
616 1402 1401 1 
617 1820 1402 3 
618 1820 1819 1 
619 3099 3100 1 
620 1857 3099 2 
621 3084 2826 3 
622 3084 3083 1 
623 2862 3084 3 
624 2862 2861 1 
625 2826 2862 3 
626 2826 2825 1 
627 2854 2853 1 
628 3100 2854 3 
629 2363 2861 2 
630 2365 2595 2 
631 2595 2596 1 
632 3862 3624 3 
633 3624 3623 1 
634 3591 3592 1 
635 3111 3591 2 
636 4121 4607 2 
637 4608 4590 3 
638 4608 4607 1 
639 4842 4608 3 
640 4842 4841 1 
641 4570 4842 3 
642 4570 4569 1 
643 4570 4590 3 
644 4570 4608 3 
645 4856 4332 3 
646 4856 4855 1 
647 4100 4856 3 
648 4100 4099 1 
649 4383 4889 2 
650 5615 5855 2 
651 852 851 1 
652 1080 852 3 
653 603 851 2 
654 1356 1106 3 
655 1356 1355 1 
656 1432 1356 3 
657 1432 1431 1 
658 1106 1432 3 
659 1106 1105 1 
660 6142 1372 3 
661 633 634 1 
662 1651 1652 1 
663 1651 1917 2 
664 1870 1852 3 
665 1870 1869 1 
666 1394 1870 3 
667 1394 1393 1 
668 1590 2376 3 
669 1590 1589 1 
670 1132 3134 3 
671 1132 1131 1 
672 2372 1132 3 
673 2372 2371 1 
674 3134 2372 3 
675 3134 3133 1 
676 2856 1858 3 
677 2856 2855 1 
678 2856 3340 3 
679 2616 2856 3 
680 2616 2615 1 
681 3340 2616 3 
682 3340 3339 1 
683 1858 1857 1 
684 1858 3340 3 
685 1858 2616 3 
686 1868 2116 3 
687 2116 2115 1 
688 2358 2870 3 
689 2870 2869 1 
690 3379 3895 2 
691 2869 3117 2 
692 3898 2866 3 
693 3898 3897 1 
694 3874 3884 3 
695 3874 3873 1 
696 3884 3124 3 
697 3884 3883 1 
698 2336 3884 3 
699 2336 2335 1 
700 2336 3874 3 
701 2335 3123 2 
702 4119 4143 2 
703 4640 4628 3 
704 4640 4639 1 
705 5842 5841 1 
706 1079 1080 1 
707 1079 1355 2 
708 113 341 2 
709 6120 5842 3 
710 877 5875 2 
711 5858 5857 1 
712 5598 5858 3 
713 1105 1135 2 
714 1137 1138 1 
715 1137 1375 2 
716 1358 1874 3 
717 1358 1357 1 
718 1358 1918 3 
719 1358 1900 3 
720 1381 1382 1 
721 1381 1897 2 
722 1131 1139 2 
723 2903 3133 2 
724 2903 2904 1 
725 2406 2640 3 
726 2406 2405 1 
727 1363 3373 2 
728 2904 2390 3 
729 3162 3370 3 
730 3370 3369 1 
731 3369 3867 2 
732 3135 3909 2 
733 3135 3136 1 
734 3144 3376 3 
735 3144 3143 1 
736 3143 3641 2 
737 3136 2878 3 
738 2878 2877 1 
739 2877 3897 2 
740 4127 4129 2 
741 3622 3621 1 
742 3621 4421 2 
743 4369 4869 2 
744 5356 5122 3 
745 5356 5355 1 
746 4120 5356 3 
747 4120 4119 1 
748 5122 4120 3 
749 5122 5121 1 
750 4139 4863 2 
751 4864 4882 3 
752 4864 4863 1 
753 4864 5114 3 
754 4882 5114 3 
755 4882 4881 1 
756 5114 4638 3 
757 5114 5113 1 
758 6115 6116 1 
759 6114 390 3 
760 6114 6113 1 
761 102 6086 3 
762 102 101 1 
763 102 878 3 
764 342 102 3 
765 342 341 1 
766 342 878 3 
767 878 6086 3 
768 878 877 1 
769 6086 342 3 
770 6086 6085 1 
771 124 6114 3 
772 124 123 1 
773 124 128 3 
774 128 6114 3 
775 128 127 1 
776 128 390 3 
777 601 1661 2 
778 1898 1624 3 
779 1898 1897 1 
780 1624 1162 3 
781 1624 1623 1 
782 1624 1682 3 
783 1682 1162 3 
784 1682 1681 1 
785 1682 1898 3 
786 1162 1898 3 
787 1162 1161 1 
788 1662 1650 3 
789 1661 1662 1 
790 1650 1649 1 
791 2152 2374 3 
792 2152 2151 1 
793 2362 1642 3 
794 1615 2111 2 
795 1642 1641 1 
796 1896 1670 3 
797 1896 1895 1 
798 1896 2622 3 
799 1670 1364 3 
800 1670 1669 1 
801 1670 2622 3 
802 1364 1896 3 
803 1364 1363 1 
804 2622 1364 3 
805 2622 2621 1 
806 2390 2389 1 
807 1895 2401 2 
808 2888 2872 3 
809 2888 2887 1 
810 2402 2888 3 
811 2402 2401 1 
812 2872 2402 3 
813 2872 2871 1 
814 3399 3667 2 
815 2680 2158 3 
816 2680 2679 1 
817 2680 3408 3 
818 3161 4141 2 
819 3161 3162 1 
820 3923 4923 2 
821 4923 4924 1 
822 4924 3622 3 
823 2911 4131 2 
824 4678 4677 1 
825 5394 4678 3 
826 5121 5143 2 
827 4851 4881 2 
828 5154 5144 3 
829 5144 5143 1 
830 4877 4931 2 
831 5634 5432 3 
832 5634 5633 1 
833 5888 5634 3 
834 5888 5887 1 
835 5432 5888 3 
836 5432 5431 1 
837 121 123 2 
838 185 1161 2 
839 953 1623 2 
840 1878 1616 3 
841 1616 1615 1 
842 1415 1416 1 
843 1415 2187 2 
844 1938 2662 3 
845 1938 1937 1 
846 2648 1938 3 
847 2648 2647 1 
848 2871 2907 2 
849 2914 3900 3 
850 2914 2913 1 
851 2914 3178 3 
852 3178 3900 3 
853 3178 3177 1 
854 3178 4142 3 
855 3900 4142 3 
856 3900 3899 1 
857 4142 2914 3 
858 4142 4141 1 
859 3665 4147 2 
860 4388 4148 3 
861 2912 2911 1 
862 3886 2912 3 
863 5393 5394 1 
864 5409 5427 2 
865 4657 4658 1 
866 4657 5167 2 
867 4406 4932 3 
868 4406 4405 1 
869 4932 5410 3 
870 4932 4931 1 
871 5410 4406 3 
872 5410 5409 1 
873 4893 5153 2 
874 5153 5154 1 
875 4399 5617 2 
876 5161 5401 2 
877 403 5389 2 
878 5431 5653 2 
879 122 5392 3 
880 122 121 1 
881 5392 6168 3 
882 5392 5391 1 
883 6168 122 3 
884 6168 6167 1 
885 6204 6203 1 
886 891 5903 2 
887 171 5649 2 
888 655 6213 2 
889 6213 6214 1 
890 937 1207 2 
891 937 938 1 
892 1174 1208 3 
893 1174 1173 1 
894 1174 1182 3 
895 1182 954 3 
896 1182 1181 1 
897 1208 1182 3 
898 1208 1207 1 
899 954 1208 3 
900 954 953 1 
901 954 1174 3 
902 1922 1894 3 
903 1922 1921 1 
904 1166 1700 3 
905 1166 1165 1 
906 1166 1922 3 
907 1166 1894 3 
908 1181 1191 2 
909 2431 2437 2 
910 1671 1699 2 
911 2927 2928 1 
912 1935 2927 2 
913 1936 2200 3 
914 1936 1935 1 
915 1936 2404 3 
916 1902 1936 3 
917 1902 1901 1 
918 2404 1902 3 
919 2404 2403 1 
920 2200 1902 3 
921 2200 2199 1 
922 2200 2404 3 
923 2403 2411 2 
924 2191 3185 2 
925 2934 3174 3 
926 2934 2933 1 
927 2933 3649 2 
928 2656 2934 3 
929 2656 2655 1 
930 2656 3680 3 
931 2908 2664 3 
932 2908 2907 1 
933 3163 3173 2 
934 3164 3666 3 
935 3164 3163 1 
936 3164 3388 3 
937 3906 3164 3 
938 3906 3905 1 
939 3388 3906 3 
940 3388 3387 1 
941 3388 3666 3 
942 3666 3906 3 
943 3666 3665 1 
944 4168 4428 3 
945 4168 4167 1 
946 4894 4652 3 
947 4894 4893 1 
948 4894 5618 3 
949 4652 5168 3 
950 4652 4651 1 
951 5168 4894 3 
952 5168 5167 1 
953 5168 5618 3 
954 5618 4652 3 
955 5618 5617 1 
956 5162 5940 3 
957 5162 5161 1 
958 5162 5440 3 
959 5440 5940 3 
960 5440 5439 1 
961 5440 5914 3 
962 5940 5914 3 
963 5940 5939 1 
964 5914 5162 3 
965 5914 5913 1 
966 5406 5405 1 
967 6167 6189 2 
968 5397 5885 2 
969 5650 5658 3 
970 5650 5649 1 
971 5658 420 3 
972 5658 5657 1 
973 5398 420 3 
974 5398 5397 1 
975 5398 5650 3 
976 5398 5658 3 
977 420 5650 3 
978 420 419 1 
979 894 670 3 
980 894 893 1 
981 1178 894 3 
982 1178 1177 1 
983 172 914 3 
984 172 171 1 
985 172 430 3 
986 172 674 3 
987 670 1178 3 
988 670 669 1 
989 194 193 1 
990 196 194 3 
991 914 674 3 
992 914 913 1 
993 430 914 3 
994 430 429 1 
995 674 430 3 
996 674 673 1 
997 673 951 2 
998 459 935 2 
999 1436 2448 3 
1000 2448 2447 1 
1001 2673 3165 2 
1002 2198 2684 3 
1003 2198 2197 1 
1004 2197 2691 2 
1005 2192 3186 3 
1006 2192 2191 1 
1007 2192 2674 3 
1008 2670 2192 3 
1009 2670 2669 1 
1010 2670 2674 3 
1011 3186 2670 3 
1012 3186 3185 1 
1013 2674 3186 3 
1014 2674 2673 1 
1015 2899 3673 2 
1016 4172 3396 3 
1017 4172 4171 1 
1018 3912 4172 3 
1019 3912 3911 1 
1020 3438 3414 3 
1021 3438 3437 1 
1022 3414 3204 3 
1023 3414 3413 1 
1024 3204 3438 3 
1025 3204 3203 1 
1026 3396 3912 3 
1027 3396 3395 1 
1028 3460 3459 1 
1029 3976 3460 3 
1030 4167 4457 2 
1031 4166 3430 3 
1032 4166 4165 1 
1033 3930 4166 3 
1034 3930 3929 1 
1035 3430 3930 3 
1036 3430 3429 1 
1037 4697 5457 2 
1038 5457 5458 1 
1039 4913 5165 2 
1040 5370 5166 3 
1041 5370 5369 1 
1042 5370 5416 3 
1043 5166 4390 3 
1044 5166 5165 1 
1045 5183 5453 2 
1046 5698 5420 3 
1047 5698 5697 1 
1048 5420 5886 3 
1049 5420 5419 1 
1050 5454 6222 3 
1051 5454 5453 1 
1052 5886 5698 3 
1053 5886 5885 1 
1054 5210 5454 3 
1055 5210 5209 1 
1056 5660 5956 3 
1057 5660 5659 1 
1058 5671 5672 1 
1059 5184 5183 1 
1060 689 893 2 
1061 693 1177 2 
1062 5994 730 3 
1063 730 729 1 
1064 193 6195 2 
1065 6195 6196 1 
1066 405 913 2 
1067 669 945 2 
1068 214 213 1 
1069 452 214 3 
1070 657 683 2 
1071 946 448 3 
1072 946 945 1 
1073 448 652 3 
1074 448 447 1 
1075 652 946 3 
1076 652 651 1 
1077 687 1179 2 
1078 684 688 3 
1079 684 683 1 
1080 709 1461 2 
1081 672 936 3 
1082 672 671 1 
1083 672 710 3 
1084 682 672 3 
1085 682 681 1 
1086 682 710 3 
1087 710 936 3 
1088 710 709 1 
1089 936 682 3 
1090 936 935 1 
1091 681 961 2 
1092 1454 1453 1 
1093 1666 1454 3 
1094 2684 2902 3 
1095 2684 2683 1 
1096 2684 3392 3 
1097 2902 2198 3 
1098 2902 2901 1 
1099 2902 3392 3 
1100 3392 2198 3 
1101 3392 3391 1 
1102 2422 2688 3 
1103 2422 2421 1 
1104 2722 2422 3 
1105 2722 2721 1 
1106 2688 2722 3 
1107 2688 2687 1 
1108 3459 3957 2 
1109 4672 4671 1 
1110 4220 4672 3 
1111 4219 4693 2 
1112 4219 4220 1 
1113 4450 4449 1 
1114 3975 3976 1 
1115 4164 4450 3 
1116 4685 4686 1 
1117 3429 3693 2 
1118 4458 4457 1 
1119 4444 4458 3 
1120 4698 4448 3 
1121 4698 4697 1 
1122 4448 4210 3 
1123 4448 4447 1 
1124 4210 4698 3 
1125 4210 4209 1 
1126 4946 5190 3 
1127 4946 4945 1 
1128 6218 424 3 
1129 424 423 1 
1130 6222 5210 3 
1131 6222 6221 1 
1132 450 6198 3 
1133 450 449 1 
1134 6198 5960 3 
1135 6198 6197 1 
1136 694 693 1 
1137 428 694 3 
1138 5960 450 3 
1139 5960 5959 1 
1140 6196 406 3 
1141 406 405 1 
1142 458 436 3 
1143 458 457 1 
1144 1180 458 3 
1145 1180 1179 1 
1146 436 1180 3 
1147 436 435 1 
1148 451 452 1 
1149 451 5993 2 
1150 5993 5994 1 
1151 1218 1984 3 
1152 1218 1217 1 
1153 1984 2238 3 
1154 1984 1983 1 
1155 1712 1218 3 
1156 1712 1711 1 
1157 1712 1984 3 
1158 1712 2238 3 
1159 1213 1719 2 
1160 1966 1965 1 
1161 2172 1966 3 
1162 1663 1664 1 
1163 1663 2721 2 
1164 2445 2446 1 
1165 2445 3207 2 
1166 2948 3958 3 
1167 2948 2947 1 
1168 2948 3450 3 
1169 2948 3946 3 
1170 3958 3946 3 
1171 3958 3957 1 
1172 3450 3958 3 
1173 3450 3449 1 
1174 3946 3450 3 
1175 3946 3945 1 
1176 3945 4671 2 
1177 3409 3497 2 
1178 3888 3498 3 
1179 3888 3887 1 
1180 3701 3975 2 
1181 4956 3932 3 
1182 4956 4955 1 
1183 3694 4956 3 
1184 3694 3693 1 
1185 3694 3934 3 
1186 3694 3932 3 
1187 3932 3934 3 
1188 3932 3931 1 
1189 3934 4956 3 
1190 3934 3933 1 
1191 4209 5451 2 
1192 5202 4710 3 
1193 4710 4709 1 
1194 4469 4470 1 
1195 4469 4703 2 
1196 4708 4946 3 
1197 4708 4707 1 
1198 4447 5217 2 
1199 4704 4980 3 
1200 4704 4703 1 
1201 4704 5954 3 
1202 4980 5900 3 
1203 4980 4979 1 
1204 5954 4980 3 
1205 5954 5953 1 
1206 5718 5678 3 
1207 5900 4704 3 
1208 5900 5899 1 
1209 5900 5954 3 
1210 6174 5206 3 
1211 6174 6173 1 
1212 5938 5964 3 
1213 5938 5937 1 
1214 5938 6174 3 
1215 5206 5964 3 
1216 5206 5205 1 
1217 5206 5938 3 
1218 5964 6174 3 
1219 5964 5963 1 
1220 5967 6173 2 
1221 5484 5483 1 
1222 6197 6219 2 
1223 427 428 1 
1224 705 6191 2 
1225 454 6192 3 
1226 454 453 1 
1227 432 454 3 
1228 432 431 1 
1229 6192 432 3 
1230 6192 6191 1 
1231 221 222 1 
1232 221 431 2 
1233 976 1444 3 
1234 976 975 1 
1235 976 1010 3 
1236 1010 1444 3 
1237 1010 1009 1 
1238 1444 700 3 
1239 1444 1443 1 
1240 700 976 3 
1241 700 699 1 
1242 700 1010 3 
1243 199 200 1 
1244 199 1443 2 
1245 457 6199 2 
1246 1217 1941 2 
1247 1720 1719 1 
1248 1720 2206 3 
1249 2730 2236 3 
1250 2730 2729 1 
1251 1942 1964 3 
1252 1942 1941 1 
1253 1942 2206 3 
1254 1964 1720 3 
1255 1964 1963 1 
1256 1964 2206 3 
1257 2236 1736 3 
1258 2236 2235 1 
1259 1736 2730 3 
1260 1736 1735 1 
1261 1486 2236 3 
1262 1486 1485 1 
1263 1486 2730 3 
1264 1486 1736 3 
1265 1684 1716 3 
1266 1684 1683 1 
1267 1204 1684 3 
1268 1204 1203 1 
1269 1716 1204 3 
1270 1716 1715 1 
1271 2456 1708 3 
1272 2456 2455 1 
1273 2460 2700 3 
1274 2460 2459 1 
1275 2700 3472 3 
1276 2700 2699 1 
1277 2232 2460 3 
1278 2232 2231 1 
1279 2232 2700 3 
1280 2232 3472 3 
1281 3472 2460 3 
1282 3472 3471 1 
1283 2450 3208 3 
1284 2450 2449 1 
1285 3984 2450 3 
1286 3984 3983 1 
1287 2190 3984 3 
1288 2190 2450 3 
1289 2190 2189 1 
1290 3208 2190 3 
1291 3208 3984 3 
1292 3208 3207 1 
1293 3979 3983 2 
1294 3421 3422 1 
1295 3421 3711 2 
1296 3944 3714 3 
1297 3714 3713 1 
1298 3933 3959 2 
1299 3943 3944 1 
1300 3466 3762 3 
1301 3466 3465 1 
1302 4464 3466 3 
1303 4464 4463 1 
1304 3762 4464 3 
1305 3762 3761 1 
1306 3761 5441 2 
1307 4466 5452 3 
1308 4466 4465 1 
1309 5452 5200 3 
1310 5452 5451 1 
1311 5441 5442 1 
1312 5200 4466 3 
1313 5200 5199 1 
1314 5463 5937 2 
1315 5678 5677 1 
1316 466 5464 3 
1317 466 465 1 
1318 5464 232 3 
1319 5464 5463 1 
1320 232 466 3 
1321 232 231 1 
1322 6220 6219 1 
1323 5181 5182 1 
1324 228 6220 3 
1325 438 6238 3 
1326 438 437 1 
1327 438 504 3 
1328 438 6250 3 
1329 6250 504 3 
1330 6250 6249 1 
1331 504 6238 3 
1332 504 503 1 
1333 6238 6250 3 
1334 6238 6237 1 
1335 975 1467 2 
1336 987 988 1 
1337 987 6229 2 
1338 699 1215 2 
1339 1467 1468 1 
1340 1491 1735 2 
1341 1459 1709 2 
1342 1708 2212 3 
1343 1708 1707 1 
1344 2212 2456 3 
1345 2212 2211 1 
1346 3474 3980 3 
1347 3980 3979 1 
1348 4208 4198 3 
1349 4208 4207 1 
1350 3960 4194 3 
1351 3960 3959 1 
1352 3960 4208 3 
1353 4194 4198 3 
1354 4194 4193 1 
1355 4194 4208 3 
1356 3485 3507 2 
1357 3485 3486 1 
1358 3486 3244 3 
1359 4203 4205 2 
1360 4970 4260 3 
1361 4970 4969 1 
1362 4480 4970 3 
1363 4480 4479 1 
1364 3774 4260 3 
1365 3774 3773 1 
1366 3774 4970 3 
1367 3774 4480 3 
1368 4260 4480 3 
1369 4260 4259 1 
1370 4969 4987 2 
1371 4479 4713 2 
1372 4252 4508 3 
1373 4508 4507 1 
1374 4714 4982 3 
1375 4714 4713 1 
1376 4982 4992 3 
1377 4982 4981 1 
1378 4992 4714 3 
1379 4992 4991 1 
1380 3752 4978 3 
1381 3752 3751 1 
1382 3751 4015 2 
1383 5245 5246 1 
1384 5245 5961 2 
1385 5246 5248 3 
1386 231 5973 2 
1387 6026 5982 3 
1388 6026 6025 1 
1389 5982 508 3 
1390 5982 5981 1 
1391 508 254 3 
1392 508 507 1 
1393 508 6026 3 
1394 254 5982 3 
1395 254 253 1 
1396 254 6026 3 
1397 731 749 2 
1398 971 972 1 
1399 463 971 2 
1400 988 260 3 
1401 260 259 1 
1402 260 476 3 
1403 750 734 3 
1404 750 749 1 
1405 1253 1981 2 
1406 1223 1257 2 
1407 1474 1478 3 
1408 1478 1477 1 
1409 1460 2216 3 
1410 1460 1459 1 
1411 1460 2462 3 
1412 2216 1982 3 
1413 2216 2215 1 
1414 2216 2230 3 
1415 2230 2462 3 
1416 1982 1460 3 
1417 1982 1981 1 
1418 1982 2462 3 
1419 2229 2230 1 
1420 1945 2227 2 
1421 2222 2221 1 
1422 3492 3254 3 
1423 3491 3492 1 
1424 3491 4485 2 
1425 3773 4747 2 
1426 4259 4721 2 
1427 4501 4991 2 
1428 5510 3752 3 
1429 5510 5509 1 
1430 4231 4751 2 
1431 4990 5222 3 
1432 4990 4989 1 
1433 4283 4975 2 
1434 4978 5510 3 
1435 4978 4977 1 
1436 5222 4722 3 
1437 5222 5221 1 
1438 4284 5222 3 
1439 4284 4283 1 
1440 4284 4722 3 
1441 4284 4990 3 
1442 230 5992 3 
1443 230 229 1 
1444 5248 5247 1 
1445 13 229 2 
1446 5974 226 3 
1447 5974 5973 1 
1448 226 236 3 
1449 226 225 1 
1450 236 242 3 
1451 236 5974 3 
1452 236 235 1 
1453 242 5974 3 
1454 242 226 3 
1455 242 241 1 
1456 5981 6007 2 
1457 972 1004 3 
1458 476 972 3 
1459 476 750 3 
1460 1004 750 3 
1461 1004 1003 1 
1462 734 1004 3 
1463 734 733 1 
1464 734 972 3 
1465 475 476 1 
1466 5 733 2 
1467 1240 6 3 
1468 6 5 1 
1469 2791 3267 2 
1470 1972 2222 3 
1471 2751 2752 1 
1472 2972 2242 3 
1473 2972 2971 1 
1474 2224 2972 3 
1475 2224 2223 1 
1476 2242 2224 3 
1477 2242 2241 1 
1478 3262 3788 3 
1479 3262 3261 1 
1480 2210 3970 3 
1481 2210 2209 1 
1482 3812 3016 3 
1483 3812 3811 1 
1484 3798 3812 3 
1485 3798 3797 1 
1486 3016 3798 3 
1487 3016 3015 1 
1488 3015 3525 2 
1489 3505 3765 2 
1490 3526 3525 1 
1491 3512 3526 3 
1492 4002 4462 3 
1493 4002 4001 1 
1494 4002 4530 3 
1495 4002 4748 3 
1496 4748 4530 3 
1497 4748 4747 1 
1498 4530 4462 3 
1499 4530 4529 1 
1500 4462 4748 3 
1501 4462 4461 1 
1502 3766 3744 3 
1503 3766 3765 1 
1504 3766 4290 3 
1505 4744 3766 3 
1506 4744 4743 1 
1507 4758 4724 3 
1508 4724 4723 1 
1509 4722 4990 3 
1510 4722 4721 1 
1511 5233 5509 2 
1512 4223 4224 1 
1513 4223 4757 2 
1514 4757 4758 1 
1515 5506 5026 3 
1516 5506 5505 1 
1517 6226 5480 3 
1518 6226 6225 1 
1519 6226 6228 3 
1520 14 6228 3 
1521 14 13 1 
1522 14 6226 3 
1523 6228 5480 3 
1524 6228 6227 1 
1525 5480 14 3 
1526 5480 5479 1 
1527 5507 5508 1 
1528 241 5709 2 
1529 5709 5710 1 
1530 225 6025 2 
1531 5732 266 3 
1532 5731 5732 1 
1533 249 5517 2 
1534 256 488 3 
1535 256 255 1 
1536 6034 500 3 
1537 6034 6033 1 
1538 488 26 3 
1539 488 487 1 
1540 525 526 1 
1541 473 525 2 
1542 489 519 2 
1543 487 6041 2 
1544 1030 782 3 
1545 1030 1029 1 
1546 782 1276 3 
1547 782 781 1 
1548 1276 1030 3 
1549 1276 1275 1 
1550 6001 6002 1 
1551 6001 6009 2 
1552 1012 782 3 
1553 1012 1011 1 
1554 1012 1030 3 
1555 1012 1276 3 
1556 269 270 1 
1557 515 516 1 
1558 515 1263 2 
1559 6042 6041 1 
1560 284 283 1 
1561 284 502 3 
1562 10 6042 3 
1563 516 284 3 
1564 48 516 3 
1565 48 284 3 
1566 48 764 3 
1567 764 310 3 
1568 526 522 3 
1569 526 1022 3 
1570 1011 1483 2 
1571 509 1243 2 
1572 1013 1241 2 
1573 1239 1240 1 
1574 485 1239 2 
1575 3 747 2 
1576 1259 1269 2 
1577 510 766 3 
1578 510 509 1 
1579 1000 1222 3 
1580 1000 999 1 
1581 1270 1269 1 
1582 1770 1270 3 
1583 1222 1228 3 
1584 1222 1221 1 
1585 1228 1000 3 
1586 1228 1227 1 
1587 1744 2024 3 
1588 1279 2019 2 
1589 1280 1786 3 
1590 1280 1279 1 
1591 1008 1280 3 
1592 1008 1007 1 
1593 1008 1508 3 
1594 2024 2023 1 
1595 1786 1008 3 
1596 1786 1785 1 
1597 1508 1280 3 
1598 1508 1507 1 
1599 1508 1786 3 
1600 1743 1744 1 
1601 1511 1512 1 
1602 1511 1743 2 
1603 1724 1748 3 
1604 1724 1723 1 
1605 1724 2012 3 
1606 1766 1724 3 
1607 1766 1765 1 
1608 1766 2012 3 
1609 1752 1751 1 
1610 2742 1752 3 
1611 2280 2279 1 
1612 2280 2492 3 
1613 2280 2786 3 
1614 2254 2280 3 
1615 2254 2786 3 
1616 2492 2506 3 
1617 2269 2981 2 
1618 2507 2755 2 
1619 2508 2276 3 
1620 2508 2507 1 
1621 2508 2754 3 
1622 2018 2508 3 
1623 2018 2017 1 
1624 2018 2754 3 
1625 2276 2018 3 
1626 2276 2275 1 
1627 2777 3787 2 
1628 3510 3010 3 
1629 3510 3509 1 
1630 3986 3510 3 
1631 3986 3985 1 
1632 3010 3986 3 
1633 3010 3009 1 
1634 2535 3001 2 
1635 2251 2489 2 
1636 3006 2992 3 
1637 3006 3005 1 
1638 3002 2778 3 
1639 3002 3001 1 
1640 3002 3006 3 
1641 2778 3006 3 
1642 2778 2777 1 
1643 2992 2778 3 
1644 2992 2991 1 
1645 2992 3002 3 
1646 3985 4257 2 
1647 4257 4258 1 
1648 3020 2798 3 
1649 3020 3019 1 
1650 3020 3546 3 
1651 3020 3026 3 
1652 3303 3304 1 
1653 2983 2997 2 
1654 2983 2984 1 
1655 3029 4023 2 
1656 3756 3004 3 
1657 3756 3755 1 
1658 3030 3756 3 
1659 3030 3029 1 
1660 3030 3278 3 
1661 3522 3521 1 
1662 3026 2798 3 
1663 3026 3025 1 
1664 3546 3026 3 
1665 3546 3545 1 
1666 3764 3778 3 
1667 3764 3763 1 
1668 4504 4018 3 
1669 4504 4503 1 
1670 4504 4726 3 
1671 4018 3506 3 
1672 4018 4017 1 
1673 4018 4726 3 
1674 3527 3528 1 
1675 3527 3777 2 
1676 3506 4504 3 
1677 3506 3505 1 
1678 4726 3506 3 
1679 4726 4725 1 
1680 4271 4743 2 
1681 4017 4285 2 
1682 4237 4238 1 
1683 4285 4286 1 
1684 4509 4727 2 
1685 4750 5482 3 
1686 4750 4749 1 
1687 4250 4750 3 
1688 4250 4249 1 
1689 4289 4497 2 
1690 6246 4488 3 
1691 6246 6245 1 
1692 4488 5238 3 
1693 4488 4487 1 
1694 5482 4250 3 
1695 5482 5481 1 
1696 4515 4741 2 
1697 4731 5243 2 
1698 4510 5530 3 
1699 4510 4509 1 
1700 4483 4489 2 
1701 5530 4776 3 
1702 5530 5529 1 
1703 4728 4268 3 
1704 4728 4727 1 
1705 4268 4498 3 
1706 4268 4267 1 
1707 4268 4794 3 
1708 4489 4490 1 
1709 4742 4762 3 
1710 4742 4741 1 
1711 4742 5984 3 
1712 4243 4495 2 
1713 4496 4996 3 
1714 4496 4495 1 
1715 4494 5744 3 
1716 4494 4493 1 
1717 4494 5526 3 
1718 3772 4778 3 
1719 3772 3771 1 
1720 3772 4996 3 
1721 3772 4496 3 
1722 5738 4494 3 
1723 5738 5737 1 
1724 5526 5738 3 
1725 5526 5525 1 
1726 5526 5744 3 
1727 5242 4742 3 
1728 5242 5241 1 
1729 4762 5242 3 
1730 4762 4761 1 
1731 4762 5984 3 
1732 4735 4736 1 
1733 4493 4735 2 
1734 5502 5501 1 
1735 5759 5760 1 
1736 530 208 3 
1737 208 207 1 
1738 5512 6020 3 
1739 5512 5511 1 
1740 6020 5770 3 
1741 6020 6019 1 
1742 5770 5512 3 
1743 5770 5769 1 
1744 1006 6224 3 
1745 1006 1005 1 
1746 1006 6008 3 
1747 6008 6224 3 
1748 6008 6007 1 
1749 6224 250 3 