ITEM: TIMESTEP
13640
ITEM: NUMBER OF ENTRIES
3827
ITEM: BOX BOUNDS pp pp ff
0.0000000000000000e+00 7.2168784000000002e+01
0.0000000000000000e+00 7.2168784000000002e+01
0.0000000000000000e+00 1.2000000000000000e+01
ITEM: ENTRIES index c_1[1] c_1[2] c_1[3]
1 6010 6242 3 
2 6242 6241 1 
3 505 506 1 
4 6009 6010 1 
5 745 746 1 
6 233 234 1 
7 233 269 2 
8 1241 1242 1 
9 1001 1002 1 
10 1501 1502 1 
11 1515 1516 1 
12 1995 1996 1 
13 2731 2732 1 
14 2503 2504 1 
15 2481 2482 1 
16 2513 2514 1 
17 3009 3010 1 
18 3511 3512 1 
19 3494 3493 1 
20 3493 4021 2 
21 4021 4022 1 
22 4231 4232 1 
23 4983 4984 1 
24 4983 4253 2 
25 4757 4758 1 
26 4283 4284 1 
27 4741 4742 1 
28 5281 5282 1 
29 5501 5502 1 
30 6224 6008 3 
31 6008 6007 1 
32 5741 5742 1 
33 5981 6007 2 
34 257 258 1 
35 6001 6002 1 
36 6013 6014 1 
37 512 22 3 
38 501 502 1 
39 269 270 1 
40 522 521 1 
41 526 522 3 
42 526 1022 3 
43 270 522 3 
44 270 768 3 
45 270 526 3 
46 1019 1020 1 
47 525 526 1 
48 1033 1034 1 
49 757 758 1 
50 1279 1280 1 
51 1769 1770 1 
52 1743 1744 1 
53 2763 2764 1 
54 2535 2536 1 
55 3006 2992 3 
56 3006 3005 1 
57 2531 2532 1 
58 2992 2778 3 
59 2992 2991 1 
60 3001 3002 1 
61 2778 3006 3 
62 2778 2777 1 
63 2521 2522 1 
64 2771 2772 1 
65 3003 3004 1 
66 3015 3016 1 
67 3030 3029 1 
68 3756 3030 3 
69 3013 3014 1 
70 3525 3526 1 
71 3253 3254 1 
72 4269 4270 1 
73 4271 4272 1 
74 4755 4756 1 
75 33 34 1 
76 511 512 1 
77 511 21 2 
78 5765 5766 1 
79 5765 6013 2 
80 273 274 1 
81 273 541 2 
82 541 542 1 
83 531 532 1 
84 23 24 1 
85 251 252 1 
86 283 284 1 
87 1021 1022 1 
88 767 768 1 
89 535 536 1 
90 535 1021 2 
91 1043 1044 1 
92 271 272 1 
93 1025 1026 1 
94 1521 1522 1 
95 1744 2024 3 
96 1283 1284 1 
97 1773 1774 1 
98 2519 2520 1 
99 2765 2766 1 
100 2529 2530 1 
101 3264 3034 3 
102 3264 3263 1 
103 2767 2768 1 
104 3263 3535 2 
105 3535 3536 1 
106 2784 2783 1 
107 3290 2784 3 
108 3303 3304 1 
109 3783 3784 1 
110 3797 3798 1 
111 4523 4524 1 
112 4263 4264 1 
113 5036 4282 3 
114 4281 4787 2 
115 4787 4788 1 
116 4282 4281 1 
117 5525 5526 1 
118 5003 5004 1 
119 6231 6232 1 
120 5299 5300 1 
121 5015 5016 1 
122 6031 6032 1 
123 5773 5774 1 
124 5771 5772 1 
125 6023 6024 1 
126 6051 6052 1 
127 537 538 1 
128 523 524 1 
129 553 554 1 
130 791 792 1 
131 545 546 1 
132 539 540 1 
133 295 296 1 
134 795 796 1 
135 1295 1296 1 
136 1781 1782 1 
137 1282 1281 1 
138 1772 1282 3 
139 2043 2044 1 
140 2541 2542 1 
141 2033 2034 1 
142 3041 3042 1 
143 2297 2298 1 
144 2571 2572 1 
145 2775 2776 1 
146 3538 3264 3 
147 3538 3537 1 
148 3055 3056 1 
149 2801 2802 1 
150 3034 3538 3 
151 3034 3033 1 
152 3534 2524 3 
153 3534 3533 1 
154 3316 3534 3 
155 3316 3315 1 
156 2524 3316 3 
157 2524 2523 1 
158 3031 3032 1 
159 3795 3796 1 
160 4553 4554 1 
161 4767 4768 1 
162 4301 4302 1 
163 5291 5292 1 
164 5032 5054 3 
165 5032 5031 1 
166 5254 5032 3 
167 5254 5253 1 
168 5054 5254 3 
169 5054 5053 1 
170 4804 5296 3 
171 5797 5798 1 
172 5271 5272 1 
173 5801 5802 1 
174 5319 5320 1 
175 5779 5780 1 
176 35 6035 2 
177 31 32 1 
178 6035 6036 1 
179 6057 6058 1 
180 52 51 1 
181 321 322 1 
182 6064 52 3 
183 69 70 1 
184 1057 1058 1 
185 1289 1290 1 
186 1058 552 3 
187 552 551 1 
188 796 800 3 
189 800 799 1 
190 1053 1054 1 
191 1532 1554 3 
192 1532 1531 1 
193 2061 2062 1 
194 1571 1572 1 
195 1823 1824 1 
196 1541 1542 1 
197 2331 2332 1 
198 2021 2022 1 
199 2047 2048 1 
200 2551 2552 1 
201 3296 3036 3 
202 3036 3035 1 
203 3283 3284 1 
204 3791 3792 1 
205 3573 3574 1 
206 4551 4552 1 
207 4309 4310 1 
208 4309 4543 2 
209 4325 4326 1 
210 4315 4316 1 
211 4791 4792 1 
212 5823 5824 1 
213 5296 5295 1 
214 4537 4538 1 
215 4303 4304 1 
216 5558 5557 1 
217 5785 5786 1 
218 5041 5042 1 
219 5041 5785 2 
220 5272 5558 3 
221 5552 5542 3 
222 5542 5541 1 
223 5805 5806 1 
224 63 5557 2 
225 6029 6030 1 
226 6071 6072 1 
227 6044 6043 1 
228 322 6044 3 
229 315 316 1 
230 315 6057 2 
231 327 328 1 
232 783 784 1 
233 815 816 1 
234 1323 1324 1 
235 551 1323 2 
236 71 72 1 
237 1071 1072 1 
238 581 582 1 
239 827 828 1 
240 1333 1334 1 
241 1313 1314 1 
242 1577 1578 1 
243 1825 1826 1 
244 2823 2824 1 
245 2581 2582 1 
246 2821 2822 1 
247 2821 3317 2 
248 3565 3566 1 
249 3317 3318 1 
250 3295 3296 1 
251 3541 3542 1 
252 3541 3791 2 
253 4065 4066 1 
254 3582 3322 3 
255 3589 3590 1 
256 3322 3321 1 
257 3581 3582 1 
258 3823 3824 1 
259 3567 3568 1 
260 4543 4544 1 
261 3825 3826 1 
262 4063 4064 1 
263 4073 4074 1 
264 4577 4578 1 
265 5073 5074 1 
266 5069 5070 1 
267 5573 5574 1 
268 5051 5052 1 
269 5051 5573 2 
270 5333 5334 1 
271 4573 4574 1 
272 5563 5564 1 
273 5563 5811 2 
274 5786 5812 3 
275 5812 5811 1 
276 64 63 1 
277 6062 64 3 
278 5302 5301 1 
279 323 324 1 
280 5814 5302 3 
281 6053 6054 1 
282 6061 6062 1 
283 6063 6064 1 
284 61 62 1 
285 75 76 1 
286 589 590 1 
287 313 314 1 
288 1586 1585 1 
289 1561 1562 1 
290 1073 1074 1 
291 1073 1339 2 
292 2063 2064 1 
293 2851 2852 1 
294 2562 3086 3 
295 2562 2561 1 
296 3086 2844 3 
297 3086 3085 1 
298 2844 2562 3 
299 2844 2843 1 
300 3301 3302 1 
301 2583 2584 1 
302 3071 3072 1 
303 3551 3552 1 
304 3561 3562 1 
305 3602 3832 3 
306 3331 3332 1 
307 4571 4572 1 
308 3832 3831 1 
309 3833 3834 1 
310 4072 3572 3 
311 3572 3571 1 
312 3801 3802 1 
313 4071 4072 1 
314 5061 5062 1 
315 4605 4606 1 
316 4605 5061 2 
317 4581 4582 1 
318 5071 5072 1 
319 4297 4298 1 
320 5593 5594 1 
321 5081 5082 1 
322 5561 5562 1 
323 6079 6080 1 
324 6089 6090 1 
325 6085 6086 1 
326 331 332 1 
327 82 564 3 
328 823 824 1 
329 81 82 1 
330 81 563 2 
331 812 1338 3 
332 861 862 1 
333 1338 1337 1 
334 811 812 1 
335 1341 1342 1 
336 1341 1831 2 
337 1831 1832 1 
338 595 596 1 
339 595 1107 2 
340 1107 1108 1 
341 841 842 1 
342 1574 1586 3 
343 1573 1574 1 
344 1565 1566 1 
345 2849 2850 1 
346 2333 2334 1 
347 2333 2849 2 
348 2349 2350 1 
349 2349 2585 2 
350 2585 2586 1 
351 2341 2342 1 
352 2335 2336 1 
353 2841 2842 1 
354 2842 3088 3 
355 4091 4092 1 
356 3343 3344 1 
357 4081 4082 1 
358 3601 3602 1 
359 5079 5080 1 
360 5097 5098 1 
361 5091 5092 1 
362 5345 5346 1 
363 5591 5592 1 
364 5327 5328 1 
365 6087 6088 1 
366 91 92 1 
367 6095 6096 1 
368 6083 6084 1 
369 831 832 1 
370 119 120 1 
371 596 1092 3 
372 1092 1091 1 
373 1351 1352 1 
374 1847 1848 1 
375 1857 1858 1 
376 2616 2615 1 
377 1858 2616 3 
378 3073 3074 1 
379 2864 2863 1 
380 2862 2861 1 
381 3084 2862 3 
382 2894 2864 3 
383 3087 3088 1 
384 3593 3594 1 
385 3341 3342 1 
386 3853 3854 1 
387 3849 3850 1 
388 3851 3852 1 
389 4107 4108 1 
390 4105 4106 1 
391 4331 4332 1 
392 5347 5348 1 
393 4339 4340 1 
394 5094 5093 1 
395 5102 5094 3 
396 5861 5862 1 
397 5599 5600 1 
398 5600 5622 3 
399 5637 5638 1 
400 5622 5621 1 
401 5351 5352 1 
402 101 102 1 
403 6109 6110 1 
404 5841 5842 1 
405 333 334 1 
406 113 114 1 
407 5881 5882 1 
408 344 592 3 
409 344 343 1 
410 1091 1103 2 
411 1103 1104 1 
412 621 622 1 
413 1347 1348 1 
414 1605 1606 1 
415 2115 2116 1 
416 1835 1836 1 
417 1835 2115 2 
418 2091 2092 1 
419 2363 2364 1 
420 2101 2102 1 
421 2845 2846 1 
422 2893 2894 1 
423 3351 3352 1 
424 3123 3124 1 
425 3619 3620 1 
426 3862 3624 3 
427 3861 3862 1 
428 4083 4084 1 
429 4861 4862 1 
430 5375 5376 1 
431 4845 4846 1 
432 4845 5119 2 
433 5862 5874 3 
434 5874 5873 1 
435 5611 5612 1 
436 877 878 1 
437 369 370 1 
438 369 635 2 
439 635 636 1 
440 123 124 1 
441 653 654 1 
442 1387 1388 1 
443 1387 1609 2 
444 1609 1610 1 
445 1113 1114 1 
446 1853 1854 1 
447 1393 1394 1 
448 1875 1876 1 
449 1615 1616 1 
450 2371 2372 1 
451 3105 3106 1 
452 2873 2874 1 
453 2853 2854 1 
454 3111 3112 1 
455 3883 3884 1 
456 4121 4122 1 
457 3371 3372 1 
458 4591 4592 1 
459 5353 5354 1 
460 5119 5120 1 
461 5123 5124 1 
462 5123 5133 2 
463 5133 5134 1 
464 5361 5362 1 
465 5623 5624 1 
466 5601 5602 1 
467 5372 5371 1 
468 5342 5372 3 
469 6131 6132 1 
470 6121 6122 1 
471 1379 1380 1 
472 1136 1135 1 
473 1134 1136 3 
474 1623 1624 1 
475 1401 1402 1 
476 1373 1374 1 
477 1631 1632 1 
478 1871 1872 1 
479 2131 2132 1 
480 2111 2112 1 
481 2113 2114 1 
482 2621 2622 1 
483 2127 2128 1 
484 2625 2626 1 
485 2619 2620 1 
486 2619 2853 2 
487 3643 3644 1 
488 3375 3376 1 
489 3375 3883 2 
490 3143 3144 1 
491 4111 4112 1 
492 4893 4894 1 
493 4631 4632 1 
494 4631 4899 2 
495 5121 5122 1 
496 4897 4898 1 
497 4879 4880 1 
498 5635 5636 1 
499 5625 5626 1 
500 5395 5396 1 
501 5395 5631 2 
502 5631 5632 1 
503 6141 6142 1 
504 5871 5872 1 
505 121 122 1 
506 5616 5615 1 
507 6144 5616 3 
508 151 152 1 
509 151 641 2 
510 641 642 1 
511 141 142 1 
512 141 143 2 
513 143 144 1 
514 623 624 1 
515 1147 1148 1 
516 1143 1144 1 
517 1131 1132 1 
518 2141 2142 1 
519 2173 2174 1 
520 2151 2152 1 
521 2374 2373 1 
522 2174 2374 3 
523 1881 1882 1 
524 2152 2374 3 
525 2381 2382 1 
526 3667 3668 1 
527 4142 4141 1 
528 3900 4142 3 
529 2905 2906 1 
530 2865 2866 1 
531 2865 3901 2 
532 3621 3622 1 
533 3923 3924 1 
534 4633 4634 1 
535 4395 4396 1 
536 4877 4878 1 
537 5373 5374 1 
538 5663 5664 1 
539 5641 5642 1 
540 5383 5384 1 
541 5883 5884 1 
542 429 430 1 
543 902 901 1 
544 132 902 3 
545 1151 1152 1 
546 1883 1884 1 
547 1161 1162 1 
548 1381 1382 1 
549 1893 1894 1 
550 1924 1923 1 
551 2871 2872 1 
552 2871 2907 2 
553 2907 2908 1 
554 3151 3152 1 
555 3152 2654 3 
556 2654 2653 1 
557 3161 3162 1 
558 2911 2912 1 
559 3899 3900 1 
560 3377 3378 1 
561 4133 4134 1 
562 4641 4642 1 
563 4167 4168 1 
564 4643 4644 1 
565 4923 4924 1 
566 4661 4662 1 
567 4911 4912 1 
568 4884 4883 1 
569 6167 6168 1 
570 378 377 1 
571 112 378 3 
572 111 112 1 
573 111 5391 2 
574 6161 6162 1 
575 6153 6154 1 
576 5391 5392 1 
577 6151 6152 1 
578 655 656 1 
579 439 440 1 
580 1383 1384 1 
581 1453 1454 1 
582 1671 1672 1 
583 1911 1912 1 
584 2412 1924 3 
585 1901 1902 1 
586 1901 1903 2 
587 2411 2412 1 
588 1903 1904 1 
589 2933 2934 1 
590 3681 3682 1 
591 3395 3396 1 
592 3411 3412 1 
593 4421 4422 1 
594 4157 4158 1 
595 3915 3916 1 
596 4674 4428 3 
597 4155 4156 1 
598 4428 4427 1 
599 4401 4402 1 
600 4663 4664 1 
601 4913 4914 1 
602 4195 5155 2 
603 5155 5156 1 
604 4415 4416 1 
605 4415 5163 2 
606 5163 5164 1 
607 5403 5404 1 
608 4865 4866 1 
609 5411 5412 1 
610 5661 5662 1 
611 5925 5926 1 
612 6177 6178 1 
613 401 402 1 
614 459 460 1 
615 913 914 1 
616 921 922 1 
617 1413 1414 1 
618 1925 1926 1 
619 1441 1442 1 
620 1921 1922 1 
621 1155 1156 1 
622 1155 1913 2 
623 1913 1914 1 
624 2183 2184 1 
625 1949 1950 1 
626 2655 2656 1 
627 2901 2902 1 
628 3674 3673 1 
629 2683 2684 1 
630 3401 3402 1 
631 3201 3202 1 
632 3675 3676 1 
633 4163 4164 1 
634 4673 4674 1 
635 4921 4922 1 
636 4423 4424 1 
637 4699 4700 1 
638 5683 5684 1 
639 6203 6204 1 
640 5675 5676 1 
641 5911 5912 1 
642 181 182 1 
643 173 174 1 
644 673 674 1 
645 701 702 1 
646 935 936 1 
647 936 682 3 
648 1215 1216 1 
649 682 681 1 
650 1665 1666 1 
651 1411 1412 1 
652 1933 1934 1 
653 2171 2172 1 
654 2431 2432 1 
655 2431 2437 2 
656 2437 2438 1 
657 3172 3674 3 
658 3171 3172 1 
659 2682 2932 3 
660 2681 2682 1 
661 3187 3188 1 
662 3475 3476 1 
663 2945 2946 1 
664 3421 3422 1 
665 3671 3672 1 
666 3413 3414 1 
667 4691 4692 1 
668 4945 4946 1 
669 5173 5174 1 
670 5445 5446 1 
671 5674 5936 3 
672 5415 5416 1 
673 5936 5935 1 
674 5673 5674 1 
675 5444 5956 3 
676 5956 5955 1 
677 5933 5934 1 
678 5207 5208 1 
679 5443 5444 1 
680 5931 5932 1 
681 205 206 1 
682 6163 6164 1 
683 221 222 1 
684 213 214 1 
685 451 452 1 
686 705 706 1 
687 471 472 1 
688 471 661 2 
689 1197 1198 1 
690 223 224 1 
691 671 672 1 
692 1444 1443 1 
693 700 1444 3 
694 1941 1942 1 
695 1697 1698 1 
696 1943 1944 1 
697 1703 1704 1 
698 1963 1964 1 
699 2451 2452 1 
700 2443 2444 1 
701 2443 2467 2 
702 2955 2956 1 
703 2949 2950 1 
704 2949 2955 2 
705 2701 2702 1 
706 2703 2704 1 
707 3431 3432 1 
708 3443 3444 1 
709 3457 3458 1 
710 3701 3975 2 
711 3975 3976 1 
712 3423 3424 1 
713 3691 3692 1 
714 3973 3974 1 
715 4445 4446 1 
716 4683 4684 1 
717 4684 4162 3 
718 4961 4962 1 
719 4437 4438 1 
720 4935 4936 1 
721 4433 4434 1 
722 5209 5210 1 
723 5966 5965 1 
724 5691 5692 1 
725 204 5966 3 
726 5705 5706 1 
727 203 204 1 
728 191 192 1 
729 662 661 1 
730 224 662 3 
731 1227 1228 1 
732 1225 1226 1 
733 211 212 1 
734 699 700 1 
735 1199 1200 1 
736 1203 1204 1 
737 1717 1718 1 
738 1713 1714 1 
739 1961 1962 1 
740 2483 2484 1 
741 2689 2690 1 
742 2728 2727 1 
743 3221 3222 1 
744 3191 3192 1 
745 3473 3474 1 
746 4439 4440 1 
747 3703 3704 1 
748 3971 3972 1 
749 3993 3994 1 
750 4213 4214 1 
751 3994 4472 3 
752 4204 4203 1 
753 3972 4204 3 
754 4472 4471 1 
755 4951 4952 1 
756 4455 4456 1 
757 4972 4971 1 
758 4215 4216 1 
759 6211 6212 1 
760 6221 6222 1 
761 6195 6196 1 
762 481 482 1 
763 6213 6214 1 
764 975 976 1 
765 479 480 1 
766 971 972 1 
767 463 464 1 
768 463 971 2 
769 1201 1202 1 
770 713 714 1 
771 713 1201 2 
772 735 736 1 
773 1221 1222 1 
774 1981 1982 1 
775 1983 1984 1 
776 1488 1487 1 
777 1211 1212 1 
778 1211 1221 2 
779 1451 1452 1 
780 2729 2730 1 
781 1955 1956 1 
782 2723 2724 1 
783 2475 2476 1 
784 3214 2986 3 
785 3214 3213 1 
786 3461 3462 1 
787 3980 3979 1 
788 3474 3980 3 
789 3477 3478 1 
790 3951 3952 1 
791 4987 4988 1 
792 4711 4712 1 
793 4480 4970 3 
794 4725 4726 1 
795 5222 5221 1 
796 4251 4252 1 
797 4251 4711 2 
798 4970 4969 1 
799 4483 4484 1 
800 4722 5222 3 
801 4989 4990 1 
802 4953 4954 1 
803 5225 5226 1 
804 5223 5224 1 
805 5961 5962 1 
806 6005 6006 1 
807 475 476 1 
808 235 236 1 
809 5993 5994 1 
810 231 232 1 
811 733 734 1 
812 751 752 1 
813 1475 1476 1 
814 1973 1974 1 
815 997 998 1 
816 2245 2246 1 
817 1491 1492 1 
818 2461 2462 1 
819 2243 2244 1 
820 2743 2744 1 
821 2971 2972 1 
822 2488 2487 1 
823 2241 2242 1 
824 2473 2474 1 
825 2737 2738 1 
826 3209 3210 1 
827 3464 3463 1 
828 2976 3464 3 
829 3231 3232 1 
830 3963 3964 1 
831 3225 3226 1 
832 3225 3963 2 
833 3465 3466 1 
834 4241 4242 1 
835 5215 5216 1 
836 4479 4480 1 
837 4223 4224 1 
838 4501 4502 1 
839 4461 4462 1 
840 4991 4992 1 
841 5491 5492 1 
842 4721 4722 1 
843 5723 5724 1 
844 6245 6246 1 
845 5731 5732 1 
846 5713 5714 1 
847 5713 6005 2 
848 243 244 1 
849 263 264 1 
850 487 488 1 
851 1003 1004 1 
852 486 485 1 
853 473 474 1 
854 1242 486 3 
855 741 742 1 
856 1761 1762 1 
857 1755 1756 1 
858 1011 1012 1 
859 1231 1232 1 
860 2485 2486 1 
861 1741 2243 2 
862 2500 2488 3 
863 2499 2500 1 
864 2961 2962 1 
865 2251 2252 1 
866 2251 2489 2 
867 2489 2490 1 
868 2975 2976 1 
869 3491 3492 1 
870 3757 3758 1 
871 3991 3992 1 
872 3758 3494 3 
873 3761 3762 1 
874 3731 3732 1 
875 4503 4504 1 
876 4499 4500 1 
877 4724 4723 1 
878 4758 4724 3 
879 4735 4736 1 
880 5471 5472 1 
881 6223 6224 1 
882 5742 5256 3 
883 5256 5255 1 
884 253 254 1 
885 5983 5984 1 
886 529 530 1 
887 17 18 1 
888 763 764 1 
889 3 4 1 
890 3 747 2 
891 1005 1006 1 
892 1256 1255 1 
893 1014 1256 3 
894 1251 1252 1 
895 1013 1014 1 
896 755 756 1 
897 755 1499 2 
898 1273 1274 1 
899 1763 1764 1 
900 981 982 1 
901 2019 2020 1 
902 1785 1786 1 
903 1028 1776 3 
904 1507 1508 1 
905 2226 1272 3 
906 1517 1518 1 
907 1272 1271 1 
908 2273 2274 1 
909 1765 1766 1 
910 2255 2256 1 
911 2761 2762 1 
912 2029 2003 2 
913 1751 1752 1 
914 1751 2769 2 
915 2769 2770 1 
916 2271 2272 1 
917 2018 2276 3 
918 2018 2017 1 
919 2508 2018 3 
920 2508 2507 1 
921 2276 2508 3 
922 2276 2275 1 
923 2254 2280 3 
924 2285 2286 1 
925 2997 2998 1 
926 2504 2740 3 
927 2247 2248 1 
928 2740 2739 1 
929 3259 3260 1 
930 2981 2982 1 
931 3011 3012 1 
932 3241 3242 1 
933 3245 3246 1 
934 3510 3509 1 
935 3767 3768 1 
936 3503 3504 1 
937 4237 4238 1 
938 3995 3996 1 
939 3721 3722 1 
940 4007 4008 1 
941 3771 3772 1 
942 4254 4253 1 
943 4984 4254 3 
944 3769 3770 1 
945 3773 3774 1 
946 4521 4522 1 
947 4761 4762 1 
948 5241 5242 1 
949 4515 4516 1 
950 4515 4741 2 
951 5503 5504 1 
952 5789 5790 1 
953 5021 5022 1 
954 5013 5014 1 
955 5008 5280 3 
956 5280 5279 1 
957 5017 5018 1 
958 5017 5239 2 
959 5757 5758 1 
960 5749 5750 1 
961 5265 5266 1 
962 4753 4754 1 
963 5239 5240 1 
964 5533 5534 1 
965 5505 5506 1 
966 5499 5500 1 
967 5511 5512 1 
968 5515 5516 1 
969 507 508 1 
970 13 14 1 
971 255 256 1 
972 247 248 1 
973 5753 5754 1 
974 6021 6022 1 
975 45 46 1 
976 267 268 1 
977 515 516 1 
978 747 748 1 
979 1039 1040 1 
980 1035 1036 1 
981 1275 1276 1 
982 771 772 1 
983 1261 1262 1 
984 1018 1017 1 
985 1274 1018 3 
986 777 778 1 
987 1027 1028 1 
988 1031 1032 1 
989 1525 1526 1 
990 1269 1270 1 
991 2011 2012 1 
992 1519 1520 1 
993 2495 2496 1 
994 2779 2780 1 
995 2759 2760 1 
996 2759 3251 2 
997 2525 2526 1 
998 2525 2785 2 
999 2785 2786 1 
1000 3271 3272 1 
1001 3267 3268 1 
1002 3261 3545 2 
1003 2261 2262 1 
1004 2511 2512 1 
1005 3495 3496 1 
1006 3304 3550 3 
1007 3513 3514 1 
1008 3755 3756 1 
1009 3269 3270 1 
1010 3743 3744 1 
1011 4011 4012 1 
1012 3763 3764 1 
1013 3777 3778 1 
1014 4266 4265 1 
1015 4275 4276 1 
1016 4006 4005 1 
1017 4047 4048 1 
1018 4245 4246 1 
1019 4513 4514 1 
1020 4272 4266 3 
1021 4272 4278 3 
1022 4277 4278 1 
1023 5025 5026 1 
1024 4773 4774 1 
1025 5521 5522 1 
1026 5263 5264 1 
1027 5001 5002 1 
1028 5001 5263 2 
1029 4777 4778 1 
1030 6003 6004 1 
1031 16 15 1 
1032 500 16 3 
1033 22 21 1 
1034 11 12 1 
1035 261 531 2 
1036 37 38 1 
1037 6041 6042 1 
1038 547 548 1 
1039 787 788 1 
1040 785 786 1 
1041 1024 1023 1 
1042 268 1024 3 
1043 793 794 1 
1044 1055 1056 1 
1045 1511 1512 1 
1046 1527 1528 1 
1047 1801 1802 1 
1048 2024 2023 1 
1049 1771 1772 1 
1050 1537 1538 1 
1051 2283 2284 1 
1052 2293 2294 1 
1053 1291 1292 1 
1054 1544 1543 1 
1055 2266 2265 1 
1056 2294 2266 3 
1057 1783 1784 1 
1058 2539 2540 1 
1059 3252 3251 1 
1060 2282 3252 3 
1061 2517 2518 1 
1062 2281 2529 2 
1063 2281 2282 1 
1064 2263 2264 1 
1065 3019 3020 1 
1066 3021 3022 1 
1067 3026 3546 3 
1068 3026 3025 1 
1069 2798 3026 3 
1070 2798 2797 1 
1071 2798 3020 3 
1072 3546 2798 3 
1073 3546 3545 1 
1074 3279 3280 1 
1075 3045 3046 1 
1076 2792 2791 1 
1077 3550 3549 1 
1078 2768 2792 3 
1079 3311 3312 1 
1080 3311 3547 2 
1081 3515 3516 1 
1082 3281 3282 1 
1083 3531 3532 1 
1084 4031 4032 1 
1085 3789 3790 1 
1086 4793 4794 1 
1087 4029 4030 1 
1088 5035 5036 1 
1089 4779 4780 1 
1090 4533 4534 1 
1091 4013 4014 1 
1092 4783 4784 1 
1093 5023 5024 1 
1094 4763 5023 2 
1095 4809 4810 1 
1096 5029 5030 1 
1097 5011 5012 1 
1098 5033 5034 1 
1099 4796 4795 1 
1100 5275 5276 1 
1101 4295 4296 1 
1102 5286 5776 3 
1103 4781 4782 1 
1104 4781 5529 2 
1105 5761 5762 1 
1106 5529 5530 1 
1107 5787 5788 1 
1108 5787 6045 2 
1109 6045 6046 1 
1110 5309 5310 1 
1111 6047 6048 1 
1112 5777 5778 1 
1113 6033 6034 1 
1114 6011 6012 1 
1115 5767 5768 1 
1116 262 261 1 
1117 32 262 3 
1118 293 294 1 
1119 548 528 3 
1120 797 798 1 
1121 301 302 1 
1122 773 774 1 
1123 528 527 1 
1124 528 804 3 
1125 775 776 1 
1126 1067 1068 1 
1127 517 518 1 
1128 47 48 1 
1129 47 517 2 
1130 533 534 1 
1131 577 578 1 
1132 2041 2042 1 
1133 1041 1042 1 
1134 1277 1278 1 
1135 1307 1308 1 
1136 1309 1310 1 
1137 779 780 1 
1138 1539 1540 1 
1139 2307 2308 1 
1140 1285 1286 1 
1141 2032 1548 3 
1142 2032 2031 1 
1143 1753 2027 2 
1144 2027 2028 1 
1145 2055 2056 1 
1146 1787 1788 1 
1147 2045 2046 1 
1148 1797 1798 1 
1149 2313 2314 1 
1150 2035 2036 1 
1151 3291 3292 1 
1152 2781 2782 1 
1153 3047 3048 1 
1154 3289 3290 1 
1155 3547 3548 1 
1156 3285 3286 1 
1157 3796 4062 3 
1158 4062 4061 1 
1159 2787 2788 1 
1160 4039 4040 1 
1161 3804 3803 1 
1162 3521 3522 1 
1163 4052 3804 3 
1164 3781 3782 1 
1165 4027 4028 1 
1166 3775 3776 1 
1167 3785 3786 1 
1168 4051 4052 1 
1169 3539 3540 1 
1170 4299 4300 1 
1171 4291 4292 1 
1172 4532 4550 3 
1173 4532 4531 1 
1174 4532 4556 3 
1175 4764 4532 3 
1176 4764 4763 1 
1177 4550 4764 3 
1178 4550 4549 1 
1179 4550 4556 3 
1180 4556 4764 3 
1181 4556 4555 1 
1182 4789 4790 1 
1183 4539 4540 1 
1184 4547 4548 1 
1185 4771 4772 1 
1186 4525 4526 1 
1187 4293 4294 1 
1188 5549 5550 1 
1189 4527 4528 1 
1190 5037 5038 1 
1191 4511 4512 1 
1192 5283 5284 1 
1193 5047 5048 1 
1194 5277 5278 1 
1195 5277 5283 2 
1196 5293 5294 1 
1197 4803 4804 1 
1198 5043 5044 1 
1199 5043 5317 2 
1200 5039 5040 1 
1201 5570 5569 1 
1202 5040 5314 3 
1203 5310 5570 3 
1204 5535 5536 1 
1205 5523 5524 1 
1206 5799 5800 1 
1207 5759 5760 1 
1208 5531 5532 1 
1209 5531 5781 2 
1210 5781 5782 1 
1211 5782 36 3 
1212 279 280 1 
1213 36 35 1 
1214 49 50 1 
1215 6065 6066 1 
1216 5791 5792 1 
1217 67 68 1 
1218 53 54 1 
1219 555 556 1 
1220 801 802 1 
1221 1063 1064 1 
1222 805 806 1 
1223 1315 1316 1 
1224 1554 1570 3 
1225 1554 1553 1 
1226 1570 1532 3 
1227 1570 1569 1 
1228 1791 1792 1 
1229 1572 1302 3 
1230 1302 1301 1 
1231 1795 1796 1 
1232 1795 2053 2 
1233 2053 2054 1 
1234 1059 1060 1 
1235 1297 1298 1 
1236 1321 1322 1 
1237 1303 1304 1 
1238 1305 1306 1 
1239 1305 2325 2 
1240 2325 2326 1 
1241 2287 2288 1 
1242 2543 2544 1 
1243 2301 2302 1 
1244 2793 2794 1 
1245 3309 3310 1 
1246 3065 3066 1 
1247 3065 3325 2 
1248 3057 3058 1 
1249 3293 3294 1 
1250 3299 3300 1 
1251 3051 3052 1 
1252 3557 3558 1 
1253 2803 2804 1 
1254 2803 3039 2 
1255 3807 3808 1 
1256 3319 3320 1 
1257 3555 3556 1 
1258 3555 3781 2 
1259 3793 3794 1 
1260 2795 2796 1 
1261 4317 4318 1 
1262 4075 4076 1 
1263 3568 4058 3 
1264 4049 4050 1 
1265 4815 4816 1 
1266 4287 4288 1 
1267 4535 4536 1 
1268 4085 4086 1 
1269 4305 4306 1 
1270 4541 4542 1 
1271 4053 4054 1 
1272 4313 4314 1 
1273 5311 5312 1 
1274 4805 4806 1 
1275 5057 5058 1 
1276 4813 4814 1 
1277 5543 5544 1 
1278 5317 5318 1 
1279 5565 5566 1 
1280 5581 5582 1 
1281 5294 5332 3 
1282 5314 5313 1 
1283 5332 5331 1 
1284 5793 5794 1 
1285 5551 5552 1 
1286 6067 6068 1 
1287 5813 5814 1 
1288 291 292 1 
1289 5803 5804 1 
1290 561 562 1 
1291 79 80 1 
1292 307 308 1 
1293 83 84 1 
1294 83 307 2 
1295 543 544 1 
1296 66 60 3 
1297 66 65 1 
1298 57 58 1 
1299 41 42 1 
1300 565 566 1 
1301 579 580 1 
1302 571 572 1 
1303 1316 1294 3 
1304 1294 1293 1 
1305 1559 1560 1 
1306 1311 1312 1 
1307 2079 2080 1 
1308 1575 1576 1 
1309 1813 1814 1 
1310 1829 1830 1 
1311 1815 1816 1 
1312 1815 1829 2 
1313 1821 1822 1 
1314 2291 2292 1 
1315 2291 2353 2 
1316 2587 2588 1 
1317 2303 2304 1 
1318 1827 1828 1 
1319 2353 2354 1 
1320 2059 2060 1 
1321 2059 2287 2 
1322 2817 2818 1 
1323 2051 2052 1 
1324 2051 2315 2 
1325 2563 2564 1 
1326 2563 2817 2 
1327 2315 2316 1 
1328 2065 2066 1 
1329 2815 2816 1 
1330 2323 2324 1 
1331 2553 2554 1 
1332 2811 2812 1 
1333 2799 2800 1 
1334 2570 2569 1 
1335 2570 3328 3 
1336 3060 3059 1 
1337 3060 2570 3 
1338 3049 3050 1 
1339 3329 3330 1 
1340 2839 3329 2 
1341 3305 3306 1 
1342 3054 3053 1 
1343 3553 3554 1 
1344 3076 3054 3 
1345 3297 3298 1 
1346 3829 3830 1 
1347 3815 3816 1 
1348 4059 4060 1 
1349 4058 4057 1 
1350 3811 3812 1 
1351 4077 4078 1 
1352 4069 4070 1 
1353 5049 5050 1 
1354 4587 4588 1 
1355 4817 4818 1 
1356 4801 4802 1 
1357 4559 4560 1 
1358 4559 4561 2 
1359 5065 5066 1 
1360 5337 5338 1 
1361 4561 4562 1 
1362 4567 4568 1 
1363 4812 4808 3 
1364 4812 4811 1 
1365 5553 5554 1 
1366 4583 4584 1 
1367 5329 5330 1 
1368 5819 5820 1 
1369 5321 5322 1 
1370 5547 5548 1 
1371 5559 5560 1 
1372 6027 6028 1 
1373 5816 5815 1 
1374 5825 5826 1 
1375 5825 6063 2 
1376 43 44 1 
1377 5821 5822 1 
1378 299 300 1 
1379 337 338 1 
1380 337 355 2 
1381 567 568 1 
1382 1065 1066 1 
1383 835 836 1 
1384 355 356 1 
1385 819 820 1 
1386 821 822 1 
1387 1083 1084 1 
1388 1083 1563 2 
1389 1076 1075 1 
1390 826 1076 3 
1391 1564 1563 1 
1392 1070 1564 3 
1393 1061 1062 1 
1394 825 826 1 
1395 1069 1070 1 
1396 1567 1568 1 
1397 1339 1340 1 
1398 1089 1090 1 
1399 1551 1552 1 
1400 2107 2108 1 
1401 2077 2078 1 
1402 1793 1794 1 
1403 2319 2320 1 
1404 2831 2832 1 
1405 2559 2560 1 
1406 2559 2835 2 
1407 2835 2836 1 
1408 2081 2082 1 
1409 3037 3038 1 
1410 3037 3095 2 
1411 3095 3096 1 
1412 2567 2568 1 
1413 2859 2860 1 
1414 3061 3062 1 
1415 2813 2814 1 
1416 2840 2839 1 
1417 3585 3586 1 
1418 3570 2840 3 
1419 3563 3564 1 
1420 3067 3068 1 
1421 3075 3076 1 
1422 3819 3820 1 
1423 3827 3828 1 
1424 4827 4828 1 
1425 4329 4330 1 
1426 4329 4827 2 
1427 4335 4336 1 
1428 5056 4812 3 
1429 5056 5055 1 
1430 4835 4836 1 
1431 4808 5056 3 
1432 4808 4807 1 
1433 4832 5088 3 
1434 4823 4824 1 
1435 5088 5087 1 
1436 4825 4826 1 
1437 4563 4564 1 
1438 5059 5060 1 
1439 4829 4830 1 
1440 4799 4800 1 
1441 4799 5099 2 
1442 5099 5100 1 
1443 5325 5326 1 
1444 6099 6100 1 
1445 74 5816 3 
1446 6081 6082 1 
1447 73 74 1 
1448 303 304 1 
1449 87 88 1 
1450 353 354 1 
1451 340 6098 3 
1452 5827 5828 1 
1453 107 108 1 
1454 586 585 1 
1455 564 563 1 
1456 597 598 1 
1457 575 576 1 
1458 359 360 1 
1459 335 336 1 
1460 855 856 1 
1461 813 814 1 
1462 1088 1087 1 
1463 1085 1086 1 
1464 829 830 1 
1465 1318 1088 3 
1466 833 834 1 
1467 1317 1318 1 
1468 847 848 1 
1469 1335 1336 1 
1470 1367 1368 1 
1471 1845 1846 1 
1472 1809 1810 1 
1473 2577 2578 1 
1474 1819 1820 1 
1475 1819 2577 2 
1476 1839 1840 1 
1477 2109 2110 1 
1478 2591 2592 1 
1479 2343 2344 1 
1480 2087 2088 1 
1481 2858 2857 1 
1482 2592 2858 3 
1483 2592 3096 3 
1484 3603 3604 1 
1485 2848 2847 1 
1486 3368 2848 3 
1487 3093 3094 1 
1488 3607 3608 1 
1489 3607 3813 2 
1490 3813 3814 1 
1491 2834 3354 3 
1492 3354 3353 1 
1493 3359 3360 1 
1494 3077 3078 1 
1495 3077 3359 2 
1496 3605 3606 1 
1497 3605 3819 2 
1498 3583 3584 1 
1499 3583 3599 2 
1500 4311 4312 1 
1501 3579 3580 1 
1502 3579 3821 2 
1503 3821 3822 1 
1504 3599 3600 1 
1505 3597 3598 1 
1506 4351 4352 1 
1507 4321 4322 1 
1508 4321 4351 2 
1509 3828 4328 3 
1510 4849 4850 1 
1511 4328 4327 1 
1512 4323 4324 1 
1513 4589 4590 1 
1514 3845 3846 1 
1515 4601 4602 1 
1516 4853 4854 1 
1517 4569 4570 1 
1518 4833 4834 1 
1519 4575 4576 1 
1520 4821 4822 1 
1521 4855 4856 1 
1522 5575 5576 1 
1523 4839 4840 1 
1524 5077 5078 1 
1525 5587 5588 1 
1526 5323 5324 1 
1527 5339 5340 1 
1528 5339 5589 2 
1529 5349 5350 1 
1530 5589 5590 1 
1531 5357 5358 1 
1532 6103 6104 1 
1533 5105 5106 1 
1534 5583 5584 1 
1535 6073 6074 1 
1536 6098 6097 1 
1537 593 594 1 
1538 5856 6102 3 
1539 6102 6101 1 
1540 347 348 1 
1541 341 342 1 
1542 325 326 1 
1543 832 586 3 
1544 93 94 1 
1545 90 116 3 
1546 592 350 3 
1547 592 591 1 
1548 601 602 1 
1549 116 115 1 
1550 851 852 1 
1551 6105 6106 1 
1552 845 846 1 
1553 350 344 3 
1554 350 349 1 
1555 603 604 1 
1556 603 851 2 
1557 857 858 1 
1558 363 364 1 
1559 1326 1588 3 
1560 1588 1587 1 
1561 1325 1326 1 
1562 1079 1080 1 
1563 1115 1116 1 
1564 1111 1112 1 
1565 1581 1582 1 
1566 1591 1592 1 
1567 1851 1852 1 
1568 1601 1602 1 
1569 1595 1596 1 
1570 1081 1082 1 
1571 1810 2074 3 
1572 2073 2074 1 
1573 1343 1344 1 
1574 1811 1812 1 
1575 2599 2600 1 
1576 2367 2368 1 
1577 1843 1844 1 
1578 2357 2358 1 
1579 3339 3340 1 
1580 2829 2830 1 
1581 2611 2612 1 
1582 2611 3083 2 
1583 3083 3084 1 
1584 2833 2834 1 
1585 2589 3347 2 
1586 3347 3348 1 
1587 3336 3346 3 
1588 3336 3335 1 
1589 2590 3336 3 
1590 2590 2589 1 
1591 3615 3616 1 
1592 3091 3092 1 
1593 3091 3335 2 
1594 3837 3838 1 
1595 3595 3596 1 
1596 3346 2590 3 
1597 3346 3345 1 
1598 3863 3864 1 
1599 3841 3842 1 
1600 3101 3102 1 
1601 4365 4366 1 
1602 4101 4102 1 
1603 4087 4088 1 
1604 4087 4093 2 
1605 4337 4338 1 
1606 4603 4604 1 
1607 4355 4603 2 
1608 4355 4356 1 
1609 4356 4094 3 
1610 4094 4093 1 
1611 4345 4346 1 
1612 4875 4876 1 
1613 4595 4596 1 
1614 5101 5102 1 
1615 105 106 1 
1616 5833 5834 1 
1617 5833 5851 2 
1618 5859 5860 1 
1619 5851 5852 1 
1620 5850 5344 3 
1621 5344 5343 1 
1622 5855 5856 1 
1623 5849 5850 1 
1624 361 362 1 
1625 6118 6117 1 
1626 626 6118 3 
1627 5863 5864 1 
1628 615 616 1 
1629 599 600 1 
1630 1350 876 3 
1631 876 875 1 
1632 871 872 1 
1633 871 881 2 
1634 1637 1638 1 
1635 1359 1360 1 
1636 1369 1370 1 
1637 859 860 1 
1638 859 1369 2 
1639 1349 1350 1 
1640 1101 1102 1 
1641 1101 1637 2 
1642 1597 1598 1 
1643 869 870 1 
1644 869 1365 2 
1645 1863 1864 1 
1646 1353 1354 1 
1647 1865 1866 1 
1648 2099 2100 1 
1649 2105 2106 1 
1650 2623 2624 1 
1651 2875 2876 1 
1652 2596 2595 1 
1653 2618 2596 3 
1654 2617 2618 1 
1655 2645 2646 1 
1656 3857 3858 1 
1657 3625 3626 1 
1658 3611 3612 1 
1659 3611 3837 2 
1660 3843 3844 1 
1661 4370 4104 3 
1662 3624 3623 1 
1663 4109 4110 1 
1664 4113 4114 1 
1665 4381 4382 1 
1666 4369 4370 1 
1667 4349 4350 1 
1668 4349 4381 2 
1669 4619 4620 1 
1670 4869 4870 1 
1671 4847 4848 1 
1672 4842 4841 1 
1673 4608 4842 3 
1674 4593 4594 1 
1675 4617 4618 1 
1676 5103 5104 1 
1677 4379 4380 1 
1678 4367 4368 1 
1679 4585 4586 1 
1680 4843 4844 1 
1681 5853 5854 1 
1682 5111 5112 1 
1683 5115 5116 1 
1684 6139 6140 1 
1685 5597 5598 1 
1686 6127 6128 1 
1687 371 372 1 
1688 625 626 1 
1689 6125 6126 1 
1690 389 390 1 
1691 147 148 1 
1692 147 5867 2 
1693 6113 6114 1 
1694 379 380 1 
1695 379 6113 2 
1696 864 863 1 
1697 613 614 1 
1698 616 864 3 
1699 1356 1106 3 
1700 1106 1105 1 
1701 365 366 1 
1702 633 634 1 
1703 395 396 1 
1704 1127 1128 1 
1705 632 630 3 
1706 882 881 1 
1707 1390 882 3 
1708 879 880 1 
1709 1357 1358 1 
1710 1389 1390 1 
1711 1856 1366 3 
1712 1873 1874 1 
1713 1121 1122 1 
1714 1625 1626 1 
1715 1391 1392 1 
1716 2362 1642 3 
1717 1869 1870 1 
1718 1629 1630 1 
1719 2613 2614 1 
1720 2370 2356 3 
1721 2361 2362 1 
1722 2605 2606 1 
1723 2635 2636 1 
1724 3103 3104 1 
1725 3109 3110 1 
1726 3131 3132 1 
1727 3365 3366 1 
1728 3126 3634 3 
1729 3609 3610 1 
1730 3634 3633 1 
1731 3633 3865 2 
1732 3363 3364 1 
1733 3379 3380 1 
1734 4104 4103 1 
1735 4103 4115 2 
1736 4115 4116 1 
1737 4126 4125 1 
1738 4382 4126 3 
1739 3873 3874 1 
1740 3873 4363 2 
1741 4363 4364 1 
1742 4357 4358 1 
1743 4611 4612 1 
1744 3871 3872 1 
1745 5131 5132 1 
1746 4393 4394 1 
1747 4393 5131 2 
1748 4621 4622 1 
1749 4851 4852 1 
1750 4627 4628 1 
1751 4873 4874 1 