ITEM: TIMESTEP
98120
ITEM: NUMBER OF ENTRIES
8196
ITEM: BOX BOUNDS pp pp ff
0.0000000000000000e+00 7.2168784000000002e+01
0.0000000000000000e+00 7.2168784000000002e+01
0.0000000000000000e+00 1.2000000000000000e+01
ITEM: ENTRIES index c_1[1] c_1[2] c_1[3]
1 5731 5732 1 
2 6022 248 3 
3 6022 6021 1 
4 34 248 3 
5 34 33 1 
6 34 6022 3 
7 248 12 3 
8 248 247 1 
9 12 34 3 
10 12 11 1 
11 12 6022 3 
12 243 475 2 
13 6001 6002 1 
14 6001 6009 2 
15 475 476 1 
16 24 474 3 
17 24 23 1 
18 24 6018 3 
19 24 6014 3 
20 6002 244 3 
21 244 243 1 
22 509 1243 2 
23 2276 2018 3 
24 2276 2275 1 
25 2754 2276 3 
26 2754 2753 1 
27 2508 2276 3 
28 2508 2507 1 
29 2508 2754 3 
30 2018 2508 3 
31 2018 2017 1 
32 2018 2754 3 
33 2252 2732 3 
34 2252 2251 1 
35 2252 2762 3 
36 2732 1504 3 
37 2732 2731 1 
38 2732 2762 3 
39 2762 1504 3 
40 2762 2761 1 
41 2251 2489 2 
42 2223 3447 2 
43 3262 3788 3 
44 3262 3261 1 
45 2518 3262 3 
46 2518 2517 1 
47 2518 3788 3 
48 2262 3262 3 
49 2262 2261 1 
50 2262 2518 3 
51 3788 2262 3 
52 3788 3787 1 
53 2490 2248 3 
54 2490 2489 1 
55 2490 3448 3 
56 2991 3277 2 
57 3012 2490 3 
58 3012 3011 1 
59 3277 3278 1 
60 2248 3012 3 
61 2248 2247 1 
62 2248 3448 3 
63 3448 3012 3 
64 3448 3447 1 
65 4017 4285 2 
66 3812 3016 3 
67 3812 3811 1 
68 3798 3812 3 
69 3798 3797 1 
70 4238 4228 3 
71 5249 5250 1 
72 5249 5481 2 
73 4488 5238 3 
74 4488 4487 1 
75 5238 6246 3 
76 5238 5237 1 
77 6010 6009 1 
78 6010 5766 3 
79 6011 6021 2 
80 5766 5765 1 
81 5766 6242 3 
82 6242 6010 3 
83 512 511 1 
84 512 274 3 
85 512 5766 3 
86 274 273 1 
87 274 6010 3 
88 762 1526 3 
89 762 761 1 
90 320 762 3 
91 320 319 1 
92 1772 1774 3 
93 1772 1771 1 
94 1282 1772 3 
95 1282 1281 1 
96 1282 1522 3 
97 2002 2486 3 
98 2002 2774 3 
99 2760 2759 1 
100 1774 1282 3 
101 1774 1773 1 
102 1522 1774 3 
103 1522 1521 1 
104 1522 1772 3 
105 2486 2485 1 
106 2486 2774 3 
107 3018 2760 3 
108 1768 2510 3 
109 2001 2002 1 
110 2001 2485 2 
111 2753 2773 2 
112 2773 2774 1 
113 1519 2275 2 
114 2314 1520 3 
115 2314 2313 1 
116 2314 2818 3 
117 2531 2731 2 
118 2777 3787 2 
119 2521 2522 1 
120 2521 3515 2 
121 3769 4503 2 
122 3770 3769 1 
123 4012 3770 3 
124 4047 4499 2 
125 4048 4500 3 
126 4048 4047 1 
127 4500 4276 3 
128 4500 4499 1 
129 4528 5582 3 
130 4528 4527 1 
131 4528 5040 3 
132 4528 5314 3 
133 5040 5582 3 
134 5040 5039 1 
135 5314 5040 3 
136 5314 5313 1 
137 5582 5314 3 
138 5582 5581 1 
139 5259 5737 2 
140 208 207 1 
141 530 208 3 
142 22 512 3 
143 22 274 3 
144 22 6242 3 
145 1015 1016 1 
146 1015 5771 2 
147 19 39 2 
148 19 20 1 
149 545 553 2 
150 518 786 3 
151 518 517 1 
152 518 790 3 
153 1330 1329 1 
154 786 296 3 
155 786 785 1 
156 786 790 3 
157 5804 292 3 
158 296 518 3 
159 296 295 1 
160 292 291 1 
161 790 296 3 
162 790 789 1 
163 20 1330 3 
164 1032 1038 3 
165 1032 1031 1 
166 546 792 3 
167 546 545 1 
168 546 1068 3 
169 792 554 3 
170 792 791 1 
171 792 1068 3 
172 1038 772 3 
173 1038 1037 1 
174 772 1032 3 
175 772 771 1 
176 554 546 3 
177 554 553 1 
178 554 1068 3 
179 1267 1549 2 
180 1281 1541 2 
181 1550 1530 3 
182 1550 1549 1 
183 1550 2056 3 
184 2056 1262 3 
185 2056 2055 1 
186 2759 3251 2 
187 1520 2296 3 
188 1520 1519 1 
189 1520 2818 3 
190 2818 2296 3 
191 2818 2817 1 
192 2296 2314 3 
193 2296 2295 1 
194 2272 2271 1 
195 3780 3779 1 
196 2281 2529 2 
197 2528 3780 3 
198 3803 3804 1 
199 3803 4051 2 
200 4523 5035 2 
201 3501 3539 2 
202 3539 3540 1 
203 5039 5535 2 
204 5760 4804 3 
205 5760 5759 1 
206 4804 5284 3 
207 4804 4803 1 
208 5296 4804 3 
209 5296 5295 1 
210 5296 5760 3 
211 5284 5296 3 
212 5284 5283 1 
213 5284 5760 3 
214 69 589 2 
215 5803 5804 1 
216 557 789 2 
217 1268 1760 3 
218 1268 1267 1 
219 1278 1268 3 
220 1278 1277 1 
221 1278 1760 3 
222 1278 1536 3 
223 1536 1268 3 
224 1536 1535 1 
225 1760 1536 3 
226 1760 1759 1 
227 289 1759 2 
228 2308 1290 3 
229 2308 2307 1 
230 1792 2308 3 
231 1792 1791 1 
232 1290 1792 3 
233 1290 1289 1 
234 1290 1542 3 
235 1542 1792 3 
236 1542 1541 1 
237 1542 2308 3 
238 2284 1778 3 
239 2284 2283 1 
240 1292 2284 3 
241 1292 1291 1 
242 1796 2564 3 
243 1796 1795 1 
244 1796 2776 3 
245 1796 2044 3 
246 1778 1292 3 
247 1778 1777 1 
248 2564 2776 3 
249 2564 2563 1 
250 2044 2564 3 
251 2044 2043 1 
252 2776 2044 3 
253 2776 2775 1 
254 3252 2282 3 
255 3252 3251 1 
256 2282 1784 3 
257 2282 2281 1 
258 1784 3252 3 
259 1784 1783 1 
260 2546 2272 3 
261 3784 3783 1 
262 1783 3035 2 
263 2551 2552 1 
264 4801 4802 1 
265 5261 5987 2 
266 27 6033 2 
267 784 538 3 
268 784 783 1 
269 784 6044 3 
270 322 538 3 
271 322 321 1 
272 322 784 3 
273 538 6044 3 
274 538 537 1 
275 5551 6049 2 
276 6044 322 3 
277 6044 6043 1 
278 5821 5822 1 
279 5822 5838 3 
280 313 559 2 
281 70 798 3 
282 70 69 1 
283 70 72 3 
284 798 314 3 
285 798 797 1 
286 314 70 3 
287 314 313 1 
288 72 314 3 
289 72 71 1 
290 72 798 3 
291 71 799 2 
292 1301 1569 2 
293 1289 2283 2 
294 1333 2307 2 
295 1539 1791 2 
296 1800 2292 3 
297 1800 1799 1 
298 1800 2022 3 
299 1795 2053 2 
300 2552 3784 3 
301 3840 3602 3 
302 3840 3839 1 
303 3832 3840 3 
304 3832 3831 1 
305 3310 3792 3 
306 3310 3309 1 
307 3292 3310 3 
308 3292 3291 1 
309 3792 3292 3 
310 3792 3791 1 
311 3541 3791 2 
312 3860 3786 3 
313 3786 3785 1 
314 3332 4588 3 
315 3332 3331 1 
316 4086 3332 3 
317 4086 4085 1 
318 4086 4588 3 
319 4588 3776 3 
320 4588 4587 1 
321 3776 3332 3 
322 3776 3775 1 
323 3776 4086 3 
324 3331 3567 2 
325 3305 3581 2 
326 5538 6048 3 
327 5538 5537 1 
328 5043 5317 2 
329 5542 5820 3 
330 5542 5541 1 
331 329 330 1 
332 329 561 2 
333 75 6093 2 
334 783 5777 2 
335 56 568 3 
336 56 55 1 
337 56 62 3 
338 318 56 3 
339 318 317 1 
340 568 318 3 
341 568 567 1 
342 62 318 3 
343 62 61 1 
344 62 568 3 
345 1572 1302 3 
346 1572 1571 1 
347 2316 1096 3 
348 1096 1095 1 
349 827 1095 2 
350 1540 1572 3 
351 1540 1539 1 
352 1302 1540 3 
353 1302 1301 1 
354 1064 1572 3 
355 1064 1063 1 
356 1064 1540 3 
357 1064 1302 3 
358 1799 2069 2 
359 2291 2353 2 
360 2353 2354 1 
361 3602 3832 3 
362 3602 3601 1 
363 3563 3831 2 
364 3564 3298 3 
365 3564 3563 1 
366 3814 3564 3 
367 3814 3813 1 
368 3291 3299 2 
369 3570 3588 3 
370 3570 3569 1 
371 3588 2840 3 
372 3588 3587 1 
373 3063 3569 2 
374 3061 4311 2 
375 3859 4075 2 
376 3859 3860 1 
377 4291 4587 2 
378 4292 3568 3 
379 4292 4291 1 
380 4292 4300 3 
381 3568 4058 3 
382 3568 3567 1 
383 3568 4300 3 
384 2787 3589 2 
385 4058 4292 3 
386 4058 4057 1 
387 4300 4058 3 
388 4300 4299 1 
389 5596 5812 3 
390 5596 5595 1 
391 5082 5786 3 
392 5082 5081 1 
393 5082 5596 3 
394 5082 5812 3 
395 5044 5302 3 
396 5044 5043 1 
397 353 5541 2 
398 5302 5814 3 
399 5302 5301 1 
400 5302 5830 3 
401 5830 5044 3 
402 5830 5829 1 
403 5814 5044 3 
404 5814 5813 1 
405 5814 5830 3 
406 5820 5552 3 
407 5820 5819 1 
408 5552 5542 3 
409 5552 5551 1 
410 5805 6043 2 
411 5559 6053 2 
412 5794 5568 3 
413 5794 5793 1 
414 5794 5808 3 
415 5568 5560 3 
416 5568 5567 1 
417 5560 5808 3 
418 5560 5559 1 
419 5560 5794 3 
420 82 564 3 
421 82 840 3 
422 596 1092 3 
423 596 595 1 
424 571 1559 2 
425 844 1560 3 
426 844 843 1 
427 1560 1078 3 
428 1560 1559 1 
429 1078 844 3 
430 1078 1077 1 
431 1790 2058 3 
432 1790 1789 1 
433 1790 2354 3 
434 1826 2070 3 
435 2312 2311 1 
436 1845 1846 1 
437 1825 1845 2 
438 1825 1826 1 
439 2071 2311 2 
440 2072 2071 1 
441 2338 2072 3 
442 1846 2580 3 
443 2580 2579 1 
444 2809 2810 1 
445 3847 3829 2 
446 3794 3318 3 
447 3794 3793 1 
448 3318 3066 3 
449 3318 3317 1 
450 3318 3344 3 
451 3344 3794 3 
452 3344 3343 1 
453 3066 3794 3 
454 3066 3065 1 
455 3066 3344 3 
456 3830 3324 3 
457 3830 3829 1 
458 3584 3583 1 
459 3596 3584 3 
460 3848 3830 3 
461 3848 3847 1 
462 3064 2788 3 
463 3064 3063 1 
464 2788 4076 3 
465 2788 2787 1 
466 3343 3353 2 
467 4076 3064 3 
468 4076 4075 1 
469 3324 3848 3 
470 3324 3323 1 
471 3579 3821 2 
472 3579 3580 1 
473 3835 4057 2 
474 4321 4351 2 
475 3822 4572 3 
476 3822 3821 1 
477 3822 4610 3 
478 3850 3822 3 
479 3850 3849 1 
480 3850 4610 3 
481 4572 3850 3 
482 4572 4571 1 
483 4610 4572 3 
484 4610 4609 1 
485 5578 5328 3 
486 6084 5816 3 
487 6084 6083 1 
488 5301 6087 2 
489 5610 74 3 
490 5610 5609 1 
491 5610 5816 3 
492 5610 6084 3 
493 5816 74 3 
494 5816 5815 1 
495 74 6084 3 
496 74 73 1 
497 5808 5568 3 
498 5808 5807 1 
499 303 304 1 
500 303 5609 2 
501 98 5620 3 
502 98 97 1 
503 6106 98 3 
504 6106 6105 1 
505 5620 6106 3 
506 5620 5619 1 
507 345 575 2 
508 1148 1147 1 
509 81 82 1 
510 81 563 2 
511 839 1337 2 
512 564 563 1 
513 564 840 3 
514 840 839 1 
515 595 1107 2 
516 1101 1637 2 
517 1637 1638 1 
518 841 843 2 
519 847 848 1 
520 847 2077 2 
521 2610 2340 3 
522 2610 2609 1 
523 2360 2610 3 
524 2360 2359 1 
525 2110 2340 3 
526 2110 2109 1 
527 2110 2610 3 
528 2110 2360 3 
529 2340 2360 3 
530 2340 2339 1 
531 2045 2046 1 
532 2045 3043 2 
533 2337 2338 1 
534 2337 2827 2 
535 3049 3050 1 
536 3049 3349 2 
537 4798 3836 3 
538 4798 4797 1 
539 4544 4798 3 
540 4544 4543 1 
541 3836 4544 3 
542 3836 3835 1 
543 4105 4609 2 
544 3849 4601 2 
545 4601 4602 1 
546 369 635 2 
547 653 1147 2 
548 860 859 1 
549 1338 1114 3 
550 1338 1337 1 
551 1084 842 3 
552 1084 1083 1 
553 1335 1336 1 
554 1335 1809 2 
555 817 2319 2 
556 2063 2064 1 
557 2319 2320 1 
558 2064 2368 3 
559 2064 2120 3 
560 1098 2120 3 
561 1098 1097 1 
562 818 1098 3 
563 818 817 1 
564 1810 2090 3 
565 1810 1809 1 
566 2120 818 3 
567 2120 2119 1 
568 1600 1599 1 
569 1600 2064 3 
570 1600 2368 3 
571 2090 2074 3 
572 2090 2089 1 
573 2074 1810 3 
574 2074 2073 1 
575 1812 1810 3 
576 1812 1811 1 
577 1812 2074 3 
578 1812 2090 3 
579 2320 1600 3 
580 2320 2368 3 
581 2601 2609 2 
582 1835 2115 2 
583 2825 3339 2 
584 2828 3604 3 
585 2828 2827 1 
586 3604 3044 3 
587 3604 3603 1 
588 3044 2828 3 
589 3044 3043 1 
590 2805 2806 1 
591 2805 3603 2 
592 2363 2861 2 
593 2357 2358 1 
594 2095 2096 1 
595 2095 2591 2 
596 2864 2894 3 
597 2864 2863 1 
598 2894 2342 3 
599 2894 2893 1 
600 2364 2864 3 
601 2364 2363 1 
602 2364 2894 3 
603 2342 2864 3 
604 2342 2341 1 
605 2342 2364 3 
606 3091 3335 2 
607 3106 2584 3 
608 3106 3105 1 
609 3106 3112 3 
610 3092 3606 3 
611 3092 3091 1 
612 3864 3092 3 
613 3864 3863 1 
614 3360 3106 3 
615 3360 3359 1 
616 3606 3864 3 
617 3606 3605 1 
618 2584 3360 3 
619 2584 2583 1 
620 3112 2584 3 
621 3112 3111 1 
622 3112 3360 3 
623 3089 3345 2 
624 3593 3863 2 
625 4822 4346 3 
626 4822 4821 1 
627 4346 4342 3 
628 4346 4345 1 
629 4122 4822 3 
630 4122 4346 3 
631 4122 4121 1 
632 4342 4122 3 
633 4342 4822 3 
634 4342 4341 1 
635 4332 4100 3 
636 4332 4331 1 
637 4100 4856 3 
638 4100 4099 1 
639 4324 4100 3 
640 4324 4323 1 
641 4324 4332 3 
642 4324 4856 3 
643 4856 4332 3 
644 4856 4855 1 
645 4340 4604 3 
646 4340 4339 1 
647 4604 5346 3 
648 4604 4603 1 
649 5346 4340 3 
650 5346 5345 1 
651 5376 4580 3 
652 5376 5375 1 
653 5106 4580 3 
654 5106 5105 1 
655 5106 5376 3 
656 5092 5376 3 
657 5092 5091 1 
658 5092 5106 3 
659 4580 5092 3 
660 4580 4579 1 
661 5079 5345 2 
662 4595 5093 2 
663 116 115 1 
664 90 116 3 
665 615 1431 2 
666 1081 1082 1 
667 1081 1833 2 
668 1870 1852 3 
669 1870 1869 1 
670 1097 2565 2 
671 1394 1870 3 
672 1394 1393 1 
673 2566 2565 1 
674 1852 1394 3 
675 1852 1851 1 
676 1850 2566 3 
677 1811 2623 2 
678 2602 1606 3 
679 2602 2601 1 
680 1630 1836 3 
681 1630 1629 1 
682 1630 2602 3 
683 1606 1630 3 
684 1606 1605 1 
685 1849 1850 1 
686 1836 1606 3 
687 1836 1835 1 
688 1836 2602 3 
689 1589 1849 2 
690 3340 2616 3 
691 3340 3339 1 
692 2856 1858 3 
693 2856 2855 1 
694 2856 3340 3 
695 2616 2856 3 
696 2616 2615 1 
697 1858 1857 1 
698 1858 3340 3 
699 1858 2616 3 
700 2624 2344 3 
701 2624 2623 1 
702 2850 2624 3 
703 2850 2849 1 
704 2344 2850 3 
705 2344 2343 1 
706 2344 2608 3 
707 2608 2624 3 
708 2608 2607 1 
709 2608 2850 3 
710 2826 2862 3 
711 2826 2825 1 
712 3084 2826 3 
713 3084 3083 1 
714 2862 3084 3 
715 2862 2861 1 
716 2873 3643 2 
717 2611 3083 2 
718 2611 2612 1 
719 2595 2596 1 
720 2358 2870 3 
721 2870 2869 1 
722 3379 3895 2 
723 3144 3376 3 
724 3144 3143 1 
725 3874 3884 3 
726 3874 3873 1 
727 3884 3124 3 
728 3884 3883 1 
729 3124 2336 3 
730 3124 3123 1 
731 3124 3874 3 
732 2336 3884 3 
733 2336 2335 1 
734 2336 3874 3 
735 4383 4889 2 
736 4593 4594 1 
737 4593 5115 2 
738 4375 4376 1 
739 4375 5375 2 
740 5585 5831 2 
741 5124 5136 3 
742 5124 5123 1 
743 1106 1432 3 
744 1106 1105 1 
745 1432 1356 3 
746 1432 1431 1 
747 1356 1106 3 
748 1356 1355 1 
749 832 5638 3 
750 832 831 1 
751 1601 1602 1 
752 1131 1139 2 
753 2376 1862 3 
754 2376 2375 1 
755 1590 2376 3 
756 1590 1589 1 
757 1605 1869 2 
758 1617 2855 2 
759 1862 1590 3 
760 1862 1861 1 
761 1132 3134 3 
762 1132 1131 1 
763 1847 2615 2 
764 2829 3103 2 
765 2612 3180 3 
766 3180 3179 1 
767 3380 3644 3 
768 3380 3379 1 
769 3644 3844 3 
770 3644 3643 1 
771 3844 3380 3 
772 3844 3843 1 
773 3397 3843 2 
774 3896 3140 3 
775 3896 3895 1 
776 3140 3398 3 
777 3140 3139 1 
778 3398 3896 3 
779 3398 3397 1 
780 3398 3868 3 
781 3868 3140 3 
782 3868 3867 1 
783 3868 3896 3 
784 3852 3898 3 
785 3852 3851 1 
786 3143 3641 2 
787 3625 3626 1 
788 3625 3851 2 
789 2335 3123 2 
790 3624 3623 1 
791 3869 4385 2 
792 3862 3624 3 
793 4870 4370 3 
794 4870 4869 1 
795 3626 4370 3 
796 3626 4870 3 
797 3626 4104 3 
798 4370 4104 3 
799 4370 4369 1 
800 4104 4870 3 
801 4104 4103 1 
802 4369 4869 2 
803 4384 4383 1 
804 4362 4384 3 
805 6116 5626 3 
806 5626 5625 1 
807 4371 5625 2 
808 878 6086 3 
809 878 877 1 
810 342 102 3 
811 342 341 1 
812 342 878 3 
813 6086 342 3 
814 6086 6085 1 
815 102 6086 3 
816 102 101 1 
817 102 878 3 
818 5842 5841 1 
819 5876 374 3 
820 5876 5875 1 
821 166 5876 3 
822 166 165 1 
823 166 380 3 
824 374 166 3 
825 374 373 1 
826 380 374 3 
827 380 379 1 
828 380 5876 3 
829 1105 1135 2 
830 5858 5857 1 
831 5598 5858 3 
832 414 1376 3 
833 1376 1375 1 
834 633 634 1 
835 1358 1874 3 
836 1358 1357 1 
837 1358 1918 3 
838 1358 1900 3 
839 1874 1900 3 
840 1874 1873 1 
841 1918 1874 3 
842 1918 1917 1 
843 1900 1918 3 
844 1900 1899 1 
845 2174 2152 3 
846 2174 2173 1 
847 2152 2374 3 
848 2152 2151 1 
849 1651 1652 1 
850 1651 1917 2 
851 1855 1899 2 
852 1882 2174 3 
853 1882 1881 1 
854 1882 2374 3 
855 1882 2152 3 
856 2374 2174 3 
857 2374 2373 1 
858 2903 3133 2 
859 2903 2904 1 
860 2384 2634 3 
861 2384 2383 1 
862 2384 3104 3 
863 3104 2634 3 
864 3104 3103 1 
865 2604 2384 3 
866 2604 2603 1 
867 2604 3104 3 
868 2904 2390 3 
869 2634 2604 3 
870 2634 2633 1 
871 2390 2389 1 
872 2867 3635 2 
873 2867 2868 1 
874 3130 3636 3 
875 3130 3129 1 
876 3636 3146 3 
877 3636 3635 1 
878 3146 3130 3 
879 3146 3145 1 
880 2885 3139 2 
881 3135 3909 2 
882 3135 3136 1 
883 2877 3897 2 
884 3642 3902 3 
885 3642 3641 1 
886 2878 2877 1 
887 3924 3642 3 
888 3924 3923 1 
889 3136 2878 3 
890 3902 3618 3 
891 3902 3901 1 
892 3902 3924 3 
893 4851 4881 2 
894 4409 4901 2 
895 4397 5355 2 
896 4882 5114 3 
897 4882 4881 1 
898 4864 4882 3 
899 4864 4863 1 
900 4864 5114 3 
901 4638 4882 3 
902 4638 4637 1 
903 4638 4864 3 
904 5114 4638 3 
905 5114 5113 1 
906 5362 5878 3 
907 5362 5361 1 
908 5878 4156 3 
909 5878 5877 1 
910 4156 5362 3 
911 4156 4155 1 
912 877 5875 2 
913 1682 1162 3 
914 1682 1681 1 
915 1682 1898 3 
916 1898 1624 3 
917 1898 1897 1 
918 1624 1162 3 
919 1624 1623 1 
920 1624 1682 3 
921 1162 1898 3 
922 1162 1161 1 
923 634 1614 3 
924 1907 2373 2 
925 2399 2419 2 
926 2640 2408 3 
927 2640 2639 1 
928 2406 2640 3 
929 2406 2405 1 
930 1854 2640 3 
931 1854 1853 1 
932 1854 2406 3 
933 1854 2408 3 
934 2408 2406 3 
935 2408 2407 1 
936 1895 2401 2 
937 3161 4141 2 
938 3161 3162 1 
939 3910 3909 1 
940 3372 3910 3 
941 3371 3372 1 
942 4678 4677 1 
943 5393 5394 1 
944 5394 4678 3 
945 3403 4641 2 
946 3923 4923 2 
947 4923 4924 1 
948 5121 5143 2 
949 5144 5143 1 
950 4160 4159 1 
951 4658 4160 3 
952 4919 5423 2 
953 5154 5144 3 
954 5409 5427 2 
955 929 5877 2 
956 5127 5361 2 
957 930 5908 3 
958 930 929 1 
959 5640 930 3 
960 5640 5639 1 
961 5640 5906 3 
962 668 182 3 
963 668 667 1 
964 182 136 3 
965 182 181 1 
966 182 386 3 
967 386 668 3 
968 386 385 1 
969 409 6187 2 
970 6148 416 3 
971 6148 6147 1 
972 642 144 3 
973 642 641 1 
974 642 6148 3 
975 416 144 3 
976 416 415 1 
977 416 642 3 
978 144 6148 3 
979 144 143 1 
980 1151 6159 2 
981 953 1623 2 
982 1446 1920 3 
983 1446 1445 1 
984 2648 1938 3 
985 2648 2647 1 
986 2656 2934 3 
987 2656 2655 1 
988 2656 3680 3 
989 3174 2656 3 
990 3174 3173 1 
991 3174 3680 3 
992 2934 3174 3 
993 2934 2933 1 
994 3680 2934 3 
995 3680 3679 1 
996 3163 3173 2 
997 3622 3621 1 
998 4924 3622 3 
999 4920 4418 3 
1000 4920 4919 1 
1001 4920 5428 3 
1002 4920 5402 3 
1003 5428 4418 3 
1004 5428 5427 1 
1005 4418 5402 3 
1006 4418 4417 1 
1007 5402 5428 3 
1008 5402 5401 1 
1009 4893 5153 2 
1010 5153 5154 1 
1011 4400 4888 3 
1012 4400 4399 1 
1013 5194 5193 1 
1014 4888 4878 3 
1015 4888 4887 1 
1016 4878 4400 3 
1017 4878 4877 1 
1018 5161 5401 2 
1019 5434 5194 3 
1020 5392 6168 3 
1021 5392 5391 1 
1022 172 914 3 
1023 172 171 1 
1024 172 430 3 
1025 172 674 3 
1026 171 5649 2 
1027 914 674 3 
1028 914 913 1 
1029 430 914 3 
1030 430 429 1 
1031 674 430 3 
1032 674 673 1 
1033 673 951 2 
1034 425 447 2 
1035 952 460 3 
1036 952 951 1 
1037 1152 656 3 
1038 1152 1151 1 
1039 934 422 3 
1040 934 933 1 
1041 934 1152 3 
1042 701 1173 2 
1043 460 702 3 
1044 460 459 1 
1045 460 692 3 
1046 422 1152 3 
1047 422 421 1 
1048 2662 2648 3 
1049 2662 2661 1 
1050 1938 2662 3 
1051 1938 1937 1 
1052 2185 2193 2 
1053 1445 1675 2 
1054 1948 2666 3 
1055 2661 2667 2 
1056 2933 3649 2 
1057 3193 4171 2 
1058 3906 3164 3 
1059 3906 3905 1 
1060 3388 3906 3 
1061 3388 3387 1 
1062 3388 3666 3 
1063 3164 3666 3 
1064 3164 3163 1 
1065 3164 3388 3 
1066 3666 3906 3 
1067 3666 3665 1 
1068 3665 4147 2 
1069 4430 4168 3 
1070 4430 4429 1 
1071 4430 4674 3 
1072 4168 4428 3 
1073 4168 4167 1 
1074 4428 4674 3 
1075 4428 4427 1 
1076 4428 4430 3 
1077 4674 4168 3 
1078 4674 4673 1 
1079 4894 4652 3 
1080 4894 4893 1 
1081 4894 5618 3 
1082 5168 4894 3 
1083 5168 5167 1 
1084 5168 5618 3 
1085 4652 5168 3 
1086 4652 4651 1 
1087 5618 4652 3 
1088 5618 5617 1 
1089 5664 4138 3 
1090 4138 4137 1 
1091 4399 5617 2 
1092 5433 5434 1 
1093 5369 5433 2 
1094 5956 5444 3 
1095 5956 5955 1 
1096 5444 5660 3 
1097 5444 5443 1 
1098 690 5922 3 
1099 690 689 1 
1100 690 892 3 
1101 892 164 3 
1102 892 891 1 
1103 164 5922 3 
1104 164 163 1 
1105 164 690 3 
1106 5660 5956 3 
1107 5660 5659 1 
1108 5922 892 3 
1109 5922 5921 1 
1110 670 1178 3 
1111 670 669 1 
1112 894 670 3 
1113 894 893 1 
1114 1178 894 3 
1115 1178 1177 1 
1116 406 405 1 
1117 459 935 2 
1118 2425 2426 1 
1119 2432 1706 3 
1120 2432 2431 1 
1121 1688 2432 3 
1122 1688 1687 1 
1123 1706 1688 3 
1124 1706 1705 1 
1125 1947 1948 1 
1126 2688 2722 3 
1127 2688 2687 1 
1128 2422 2688 3 
1129 2422 2421 1 
1130 2443 2467 2 
1131 2194 2444 3 
1132 2194 2193 1 
1133 2194 3166 3 
1134 2444 2950 3 
1135 2444 2443 1 
1136 2722 2422 3 
1137 2722 2721 1 
1138 4688 3922 3 
1139 4688 4687 1 
1140 4688 4696 3 
1141 4429 4695 2 
1142 4167 4457 2 
1143 5195 5196 1 
1144 5195 5219 2 
1145 5672 5670 3 
1146 5672 5671 1 
1147 5670 5924 3 
1148 5670 5669 1 
1149 5924 5672 3 
1150 5924 5923 1 
1151 5183 5453 2 
1152 5454 6222 3 
1153 5454 5453 1 
1154 689 893 2 
1155 694 693 1 
1156 428 694 3 
1157 427 428 1 
1158 730 729 1 
1159 5994 730 3 
1160 651 5943 2 
1161 657 683 2 
1162 936 682 3 
1163 936 935 1 
1164 710 936 3 
1165 710 709 1 
1166 672 936 3 
1167 672 671 1 
1168 672 710 3 
1169 682 672 3 
1170 682 681 1 
1171 682 710 3 
1172 1666 1454 3 
1173 1687 1949 2 
1174 3401 3435 2 
1175 3401 3402 1 
1176 3674 3673 1 
1177 3172 3674 3 
1178 3459 3957 2 
1179 3460 3459 1 
1180 3976 3460 3 
1181 4219 4693 2 
1182 4219 4220 1 
1183 3930 4166 3 
1184 3930 3929 1 
1185 4166 3430 3 
1186 4166 4165 1 
1187 3430 3930 3 
1188 3430 3429 1 
1189 3697 3921 2 
1190 4458 4457 1 
1191 4444 4458 3 
1192 4697 5457 2 
1193 5457 5458 1 
1194 4460 5218 3 
1195 4460 4459 1 
1196 4432 4934 3 
1197 4186 5218 3 
1198 4186 4185 1 
1199 4186 4460 3 
1200 4186 5220 3 
1201 4934 4933 1 
1202 5220 4460 3 
1203 5220 5219 1 
1204 5218 5220 3 
1205 5218 5217 1 
1206 5923 5947 2 
1207 6222 5210 3 
1208 6222 6221 1 
1209 5470 5696 3 
1210 5470 5469 1 
1211 5210 5454 3 
1212 5210 5209 1 
1213 5230 5470 3 
1214 5230 5229 1 
1215 5230 6240 3 
1216 196 194 3 
1217 194 193 1 
1218 198 197 1 
1219 462 198 3 
1220 6197 6219 2 
1221 697 698 1 
1222 433 697 2 
1223 221 222 1 
1224 221 431 2 
1225 436 1180 3 
1226 436 435 1 
1227 458 436 3 
1228 458 457 1 
1229 5993 5994 1 
1230 222 178 3 
1231 178 177 1 
1232 709 1461 2 
1233 1462 1496 3 
1234 1462 1461 1 
1235 1422 1496 3 
1236 1422 1421 1 
1237 1422 1480 3 
1238 1422 1462 3 
1239 1480 1462 3 
1240 1480 1479 1 
1241 1496 1480 3 
1242 1496 1495 1 
1243 1713 1983 2 
1244 1225 1421 2 
1245 1454 1453 1 
1246 1964 1720 3 
1247 1964 1963 1 
1248 1964 2206 3 
1249 1720 1719 1 
1250 1720 2206 3 
1251 2900 2899 1 
1252 2899 3673 2 
1253 3958 3946 3 
1254 3958 3957 1 
1255 2948 3958 3 
1256 2948 2947 1 
1257 2948 3450 3 
1258 2948 3946 3 
1259 3450 3958 3 
1260 3450 3449 1 
1261 3946 3450 3 
1262 3946 3945 1 
1263 3926 3968 3 
1264 4220 4672 3 
1265 4672 4671 1 
1266 3967 3977 2 
1267 3701 3975 2 
1268 3702 3701 1 
1269 3975 3976 1 
1270 3940 3706 3 
1271 3940 3939 1 
1272 3429 3693 2 
1273 3706 3724 3 
1274 3706 3705 1 
1275 3724 3940 3 
1276 3724 3723 1 
1277 3707 4443 2 
1278 4443 4444 1 
1279 5442 4210 3 
1280 5442 5441 1 
1281 4210 4698 3 
1282 4210 4209 1 
1283 4448 4210 3 
1284 4448 4447 1 
1285 4448 5442 3 
1286 4698 4448 3 
1287 4698 4697 1 
1288 4698 5442 3 
1289 4958 4434 3 
1290 4958 4957 1 
1291 4958 5476 3 
1292 4447 5217 2 
1293 4459 4707 2 
1294 4184 4958 3 
1295 4184 4183 1 
1296 4184 5476 3 
1297 4469 4470 1 
1298 4469 4703 2 
1299 6240 5470 3 
1300 6240 6239 1 
1301 5696 5230 3 
1302 5696 5695 1 
1303 5696 6240 3 
1304 179 461 2 
1305 461 462 1 
1306 5486 5676 3 
1307 5486 5485 1 
1308 6164 5486 3 
1309 6164 6163 1 
1310 5484 5483 1 
1311 454 6192 3 
1312 454 453 1 
1313 6192 432 3 
1314 6192 6191 1 
1315 924 920 3 
1316 920 919 1 
1317 6220 6219 1 
1318 228 6220 3 
1319 716 920 3 
1320 716 6220 3 
1321 949 950 1 
1322 698 924 3 
1323 698 920 3 
1324 200 698 3 
1325 200 716 3 
1326 200 924 3 
1327 432 454 3 
1328 432 431 1 
1329 453 923 2 
1330 479 480 1 
1331 199 200 1 
1332 199 1443 2 
1333 699 1215 2 
1334 1457 1479 2 
1335 1714 6200 3 
1336 1714 1713 1 
1337 472 216 3 
1338 472 471 1 
1339 472 1714 3 
1340 6200 472 3 
1341 6200 6199 1 
1342 979 1455 2 
1343 1213 1719 2 
1344 1942 1964 3 
1345 1942 1941 1 
1346 1942 2206 3 
1347 2501 2977 2 
1348 2977 2978 1 
1349 3968 3967 1 
1350 3225 3963 2 
1351 2445 2446 1 
1352 2445 3207 2 
1353 3226 2704 3 
1354 3226 3225 1 
1355 3226 3424 3 
1356 2946 2704 3 
1357 2946 2945 1 
1358 2946 3226 3 
1359 3945 4671 2 
1360 2704 3424 3 
1361 2704 2703 1 
1362 3421 3422 1 
1363 3421 3711 2 
1364 3422 3702 3 
1365 3466 3762 3 
1366 3466 3465 1 
1367 4464 3466 3 
1368 4464 4463 1 
1369 3762 4464 3 
1370 3762 3761 1 
1371 4209 5451 2 
1372 3761 5441 2 
1373 4474 4206 3 
1374 4474 4473 1 
1375 4474 4988 3 
1376 4206 4988 3 
1377 4206 4205 1 
1378 4988 4438 3 
1379 4988 4987 1 
1380 4438 4206 3 
1381 4438 4437 1 
1382 4438 4474 3 
1383 4981 5203 2 
1384 4508 4507 1 
1385 465 6239 2 
1386 5685 5899 2 
1387 466 5464 3 
1388 466 465 1 
1389 232 466 3 
1390 232 231 1 
1391 180 5968 3 
1392 180 179 1 
1393 5676 6164 3 
1394 5676 5675 1 
1395 923 924 1 
1396 6250 504 3 
1397 6250 6249 1 
1398 6238 6250 3 
1399 6238 6237 1 
1400 227 228 1 
1401 227 993 2 
1402 463 971 2 
1403 1486 2236 3 
1404 1486 1485 1 
1405 1486 2730 3 
1406 1486 1736 3 
1407 1736 2730 3 
1408 1736 1735 1 
1409 1474 1478 3 
1410 1478 1477 1 
1411 2236 1736 3 
1412 2236 2235 1 
1413 1491 1735 2 
1414 1991 1992 1 
1415 1477 1991 2 
1416 2189 2953 2 
1417 2953 2954 1 
1418 4194 4198 3 
1419 4194 4193 1 
1420 4194 4208 3 
1421 4198 3960 3 
1422 4198 4197 1 
1423 3933 3959 2 
1424 4479 4713 2 
1425 4714 4982 3 
1426 4714 4713 1 
1427 4982 4992 3 
1428 4982 4981 1 
1429 4992 4714 3 
1430 4992 4991 1 
1431 4252 4508 3 
1432 5464 232 3 
1433 5464 5463 1 
1434 504 6238 3 
1435 504 503 1 
1436 438 6238 3 
1437 438 437 1 
1438 438 504 3 
1439 438 6250 3 
1440 498 732 3 
1441 498 497 1 
1442 732 6230 3 
1443 732 731 1 
1444 731 749 2 
1445 987 988 1 
1446 987 6229 2 
1447 1202 1490 3 
1448 1202 1201 1 
1449 469 737 2 
1450 1473 1474 1 
1451 1465 1466 1 
1452 1465 1473 2 
1453 1237 2471 2 
1454 1945 2227 2 
1455 2966 2710 3 
1456 2966 2965 1 
1457 2710 2990 3 
1458 2710 2709 1 
1459 2737 2738 1 
1460 2737 3463 2 
1461 3979 3983 2 
1462 2515 2747 2 
1463 3473 3474 1 
1464 3473 4193 2 
1465 3980 3979 1 
1466 3474 3980 3 
1467 3477 3721 2 
1468 4259 4721 2 
1469 4283 4975 2 
1470 4501 4991 2 
1471 5493 5494 1 
1472 13 229 2 
1473 5974 226 3 
1474 5974 5973 1 
1475 242 5974 3 
1476 242 226 3 
1477 242 241 1 
1478 5487 5991 2 
1479 5246 5248 3 
1480 5248 5247 1 
1481 236 242 3 
1482 236 5974 3 
1483 236 235 1 
1484 235 5479 2 
1485 226 236 3 
1486 226 225 1 
1487 192 8 3 
1488 192 191 1 
1489 6026 5982 3 
1490 6026 6025 1 
1491 7 497 2 
1492 253 6235 2 
1493 5 733 2 
1494 5730 5729 1 
1495 11 6051 2 
1496 6051 6052 1 
1497 713 1201 2 
1498 1223 1257 2 
1499 1258 1248 3 
1500 1258 1257 1 
1501 1224 1730 3 
1502 1224 1223 1 
1503 736 1224 3 
1504 736 735 1 
1505 1730 736 3 
1506 1730 1729 1 
1507 1238 1237 1 
1508 1466 1238 3 
1509 3000 2736 3 
1510 3000 2999 1 
1511 2736 2228 3 
1512 2736 2735 1 
1513 2228 3000 3 
1514 2228 2227 1 
1515 3268 2768 3 
1516 3268 3267 1 
1517 2768 2792 3 
1518 2768 2767 1 
1519 2792 3268 3 
1520 2792 2791 1 
1521 2259 3011 2 
1522 2516 4004 3 
1523 2516 2515 1 
1524 4004 3468 3 
1525 4004 4003 1 
1526 3468 2516 3 
1527 3468 3467 1 
1528 3467 3735 2 
1529 3735 3736 1 
1530 3016 3798 3 
1531 3016 3015 1 
1532 4228 4227 1 
1533 3751 4015 2 
1534 4284 5222 3 
1535 4284 4283 1 
1536 4284 4722 3 
1537 4284 4990 3 
1538 4722 4990 3 
1539 4722 4721 1 
1540 5222 4722 3 
1541 5222 5221 1 
1542 5250 5790 3 
1543 5250 5494 3 
1544 4990 5222 3 
1545 4990 4989 1 
1546 5494 5750 3 
1547 5750 5749 1 
1548 225 6025 2 
1549 5488 5487 1 
1550 241 5709 2 
1551 489 519 2 
1552 5255 5747 2 
1553 5784 6038 3 
1554 6038 6037 1 
1555 247 5753 2 
1556 6014 6018 3 
1557 6014 6013 1 
1558 6018 474 3 
1559 6018 6017 1 
1560 474 6014 3 
1561 474 473 1 
1562 473 525 2 
1563 525 526 1 
1564 33 501 2 
1565 1012 782 3 
1566 1012 1011 1 
1567 1012 1030 3 
1568 1012 1276 3 
1569 1276 1030 3 
1570 1276 1275 1 
1571 501 502 1 
1572 782 1276 3 
1573 782 781 1 
1574 1030 782 3 
1575 1030 1029 1 
1576 269 270 1 
1577 515 516 1 
1578 515 1263 2 
1579 233 269 2 
1580 310 309 1 
1581 310 1246 3 
1582 764 310 3 
1583 764 1246 3 
1584 485 1239 2 
1585 722 1510 3 
1586 722 721 1 
1587 1260 722 3 
1588 1260 1259 1 
1589 535 1021 2 
1590 781 1523 2 
1591 486 1242 3 
1592 486 485 1 
1593 1245 1246 1 
1594 1738 486 3 
1595 1738 1737 1 
1596 1259 1269 2 
1597 1242 1738 3 
1598 1242 1241 1 
1599 1758 1020 3 
1600 1758 1757 1 
1601 536 1002 3 
1602 536 535 1 
1603 536 1758 3 
1604 1002 1020 3 
1605 1002 1001 1 
1606 1002 1758 3 
1607 1020 536 3 
1608 1020 1019 1 
1609 741 742 1 
1610 741 973 2 
1611 742 1236 3 
1612 1236 1235 1 
1613 1723 2253 2 
1614 2253 2254 1 
1615 2009 2505 2 
1616 1743 1744 1 
1617 1511 1512 1 
1618 1511 1743 2 
1619 1752 1751 1 
1620 2481 2482 1 
1621 2481 3017 2 
1622 3017 3018 1 
1623 2279 2509 2 
1624 2785 2786 1 
1625 2525 2785 2 
1626 2024 2023 1 
1627 2539 3739 2 
1628 1504 2252 3 
1629 1504 1503 1 
1630 3006 2992 3 
1631 3006 3005 1 
1632 2992 2778 3 
1633 2992 2991 1 
1634 2992 3002 3 
1635 1503 2761 2 
1636 2511 2512 1 
1637 2511 2767 2 
1638 3230 3236 3 
1639 3230 3229 1 
1640 3250 3230 3 
1641 3250 3249 1 
1642 2261 2771 2 
1643 2535 3001 2 
1644 3002 2778 3 
1645 3002 3001 1 
1646 3002 3006 3 
1647 3985 4257 2 
1648 2983 2997 2 
1649 2983 2984 1 
1650 4257 4258 1 
1651 3261 3545 2 
1652 2984 4010 3 
1653 3546 3026 3 
1654 3546 3545 1 
1655 4010 4009 1 
1656 3029 4023 2 
1657 2798 3546 3 
1658 2798 2797 1 
1659 4286 4514 3 
1660 4024 4023 1 
1661 4285 4286 1 
1662 2749 3245 2 
1663 3270 4024 3 
1664 3522 3521 1 
1665 4258 3522 3 
1666 3278 4258 3 
1667 3278 3522 3 
1668 3287 3521 2 
1669 3518 3246 3 
1670 3269 3270 1 
1671 2783 3269 2 
1672 4018 3506 3 
1673 4018 4017 1 
1674 4018 4726 3 
1675 4726 3506 3 
1676 4726 4725 1 
1677 3517 3518 1 
1678 3517 3989 2 
1679 4504 4018 3 
1680 4504 4503 1 
1681 4504 4726 3 
1682 3506 4504 3 
1683 3506 3505 1 
1684 3505 3765 2 
1685 3543 3811 2 
1686 4237 4238 1 
1687 4227 4239 2 
1688 4270 4272 3 
1689 4270 4269 1 
1690 4270 4278 3 
1691 4266 4272 3 
1692 4266 4265 1 
1693 4266 4270 3 
1694 4278 4266 3 
1695 4278 4277 1 
1696 4272 4278 3 
1697 4272 4271 1 
1698 3766 3744 3 
1699 3766 3765 1 
1700 3766 4290 3 
1701 4289 4497 2 
1702 4748 4530 3 
1703 4748 4747 1 
1704 4750 5482 3 
1705 4750 4749 1 
1706 4250 4750 3 
1707 4250 4249 1 
1708 5482 4250 3 
1709 5482 5481 1 
1710 4268 4498 3 
1711 4268 4267 1 
1712 4268 4794 3 
1713 4498 4728 3 
1714 4498 4497 1 
1715 4498 4794 3 
1716 4728 4268 3 
1717 4728 4727 1 
1718 4794 4728 3 
1719 4794 4793 1 
1720 5234 4484 3 
1721 5234 5233 1 
1722 4484 4720 3 
1723 4484 4483 1 
1724 4484 4732 3 
1725 4732 5234 3 
1726 4732 4731 1 
1727 4720 5234 3 
1728 4720 4719 1 
1729 4720 4732 3 
1730 4496 4996 3 
1731 4496 4495 1 
1732 4996 4778 3 
1733 4996 4995 1 
1734 6246 4488 3 
1735 6246 6245 1 
1736 3772 4778 3 
1737 3772 3771 1 
1738 3772 4996 3 
1739 3772 4496 3 
1740 4778 4496 3 
1741 4778 4777 1 
1742 4999 5237 2 
1743 5763 6245 2 
1744 4995 5007 2 
1745 5017 5239 2 
1746 5069 5070 1 
1747 5007 5008 1 
1748 5507 5508 1 
1749 5502 5501 1 
1750 5014 5502 3 
1751 5511 6227 2 
1752 6019 6225 2 