ITEM: TIMESTEP
51920
ITEM: NUMBER OF ENTRIES
7551
ITEM: BOX BOUNDS pp pp ff
0.0000000000000000e+00 7.2168784000000002e+01
0.0000000000000000e+00 7.2168784000000002e+01
0.0000000000000000e+00 1.2000000000000000e+01
ITEM: ENTRIES index c_1[1] c_1[2] c_1[3]
1 6224 250 3 
2 6224 6223 1 
3 1006 6224 3 
4 1006 1005 1 
5 1006 6008 3 
6 6008 6224 3 
7 6008 6007 1 
8 250 6008 3 
9 250 249 1 
10 250 1006 3 
11 525 526 1 
12 473 525 2 
13 756 755 1 
14 754 756 3 
15 535 1021 2 
16 1021 1022 1 
17 1758 1020 3 
18 1758 1757 1 
19 1002 1020 3 
20 1002 1001 1 
21 1002 1758 3 
22 536 1002 3 
23 536 535 1 
24 536 1758 3 
25 1020 536 3 
26 1020 1019 1 
27 1786 1008 3 
28 1786 1785 1 
29 1747 1757 2 
30 2741 2742 1 
31 3223 3224 1 
32 2251 2489 2 
33 1767 1768 1 
34 3015 3525 2 
35 3503 3504 1 
36 4983 4984 1 
37 4983 4253 2 
38 4276 4048 3 
39 4276 4275 1 
40 4048 4500 3 
41 4048 4047 1 
42 4500 4276 3 
43 4500 4499 1 
44 4515 4741 2 
45 5507 5508 1 
46 245 246 1 
47 245 1005 2 
48 5765 6013 2 
49 29 251 2 
50 6001 6002 1 
51 6001 6009 2 
52 6011 6021 2 
53 256 488 3 
54 256 255 1 
55 26 256 3 
56 26 25 1 
57 6014 6018 3 
58 6014 6013 1 
59 6018 474 3 
60 6018 6017 1 
61 24 474 3 
62 24 23 1 
63 24 6018 3 
64 24 6014 3 
65 474 6014 3 
66 474 473 1 
67 488 26 3 
68 488 487 1 
69 270 522 3 
70 270 768 3 
71 270 526 3 
72 522 521 1 
73 522 768 3 
74 526 522 3 
75 526 1022 3 
76 502 1022 3 
77 502 516 3 
78 768 1022 3 
79 516 284 3 
80 284 283 1 
81 284 502 3 
82 38 37 1 
83 778 1042 3 
84 778 777 1 
85 1511 1512 1 
86 1511 1743 2 
87 1512 534 3 
88 534 533 1 
89 1743 1744 1 
90 1503 2761 2 
91 3256 3255 1 
92 2511 2512 1 
93 2511 2767 2 
94 2531 2731 2 
95 3272 3034 3 
96 3272 3271 1 
97 3272 3538 3 
98 3264 3538 3 
99 3264 3263 1 
100 3264 3272 3 
101 3034 3264 3 
102 3034 3033 1 
103 3538 3034 3 
104 3538 3537 1 
105 3029 4023 2 
106 3277 3278 1 
107 3269 3270 1 
108 2783 3269 2 
109 3511 3512 1 
110 4012 3770 3 
111 4011 4012 1 
112 4047 4499 2 
113 5796 5795 1 
114 240 5796 3 
115 5783 5795 2 
116 5783 5784 1 
117 5768 5772 3 
118 5768 5767 1 
119 5768 6012 3 
120 6012 5772 3 
121 6012 6011 1 
122 252 6012 3 
123 252 251 1 
124 252 5768 3 
125 5772 252 3 
126 5772 5771 1 
127 17 18 1 
128 258 38 3 
129 759 777 2 
130 793 794 1 
131 290 289 1 
132 794 290 3 
133 1773 2297 2 
134 2271 2763 2 
135 2962 3256 3 
136 2818 2296 3 
137 2818 2817 1 
138 1520 2296 3 
139 1520 1519 1 
140 1520 2818 3 
141 2296 2314 3 
142 2296 2295 1 
143 2314 1520 3 
144 2314 2313 1 
145 2314 2818 3 
146 2961 2962 1 
147 3022 3021 1 
148 3496 3022 3 
149 3042 3041 1 
150 3271 3495 2 
151 3495 3496 1 
152 4024 4023 1 
153 3270 4024 3 
154 3315 4035 2 
155 4264 5036 3 
156 4264 4263 1 
157 4264 4534 3 
158 4282 4264 3 
159 4282 4281 1 
160 4282 4534 3 
161 5036 4282 3 
162 5036 5035 1 
163 4037 4038 1 
164 4305 4306 1 
165 4053 4305 2 
166 4517 4809 2 
167 4809 4810 1 
168 3805 3806 1 
169 4745 5021 2 
170 5988 5987 1 
171 5034 5988 3 
172 542 6030 3 
173 542 541 1 
174 5540 542 3 
175 5540 5539 1 
176 5540 5780 3 
177 6030 5540 3 
178 6030 6029 1 
179 5780 542 3 
180 5780 5779 1 
181 5780 6030 3 
182 1330 1329 1 
183 47 48 1 
184 47 517 2 
185 760 1054 3 
186 760 759 1 
187 1308 760 3 
188 1308 1307 1 
189 1054 1308 3 
190 1054 1053 1 
191 1267 1549 2 
192 1542 1792 3 
193 1542 1541 1 
194 1542 2308 3 
195 1290 1792 3 
196 1290 1289 1 
197 1290 1542 3 
198 1792 2308 3 
199 1792 1791 1 
200 2308 1290 3 
201 2308 2307 1 
202 1539 1791 2 
203 2564 2776 3 
204 2564 2563 1 
205 1321 2545 2 
206 2776 2044 3 
207 2776 2775 1 
208 1796 2564 3 
209 1796 1795 1 
210 1796 2776 3 
211 1796 2044 3 
212 2044 2564 3 
213 2044 2043 1 
214 2328 2574 3 
215 2328 2327 1 
216 1828 2328 3 
217 1828 1827 1 
218 1322 2574 3 
219 1322 1321 1 
220 1322 2328 3 
221 1322 1828 3 
222 2545 2546 1 
223 2546 2272 3 
224 2563 2817 2 
225 2272 2271 1 
226 4026 3746 3 
227 4026 4036 3 
228 3292 3291 1 
229 3310 3292 3 
230 4036 4035 1 
231 3746 3745 1 
232 3746 4036 3 
233 3309 3310 1 
234 3031 3309 2 
235 3311 3547 2 
236 3785 3786 1 
237 3785 4043 2 
238 4043 4044 1 
239 4052 4051 1 
240 4052 3312 3 
241 3804 4052 3 
242 5332 5294 3 
243 5332 5331 1 
244 5536 5332 3 
245 5536 5535 1 
246 5294 5536 3 
247 5294 5293 1 
248 4014 5536 3 
249 4014 4013 1 
250 4014 5332 3 
251 4014 5294 3 
252 5254 5032 3 
253 5254 5253 1 
254 5054 5254 3 
255 5054 5053 1 
256 5032 5054 3 
257 5032 5031 1 
258 18 5788 3 
259 5788 5787 1 
260 59 6055 2 
261 6055 6056 1 
262 783 5777 2 
263 276 776 3 
264 776 775 1 
265 5805 6043 2 
266 1570 1554 3 
267 1570 1569 1 
268 1570 2542 3 
269 1532 1570 3 
270 1532 1531 1 
271 1532 2542 3 
272 2542 1554 3 
273 2542 2541 1 
274 1554 1532 3 
275 1554 1553 1 
276 1301 1569 2 
277 1302 1540 3 
278 1302 1301 1 
279 1572 1302 3 
280 1572 1571 1 
281 2289 2290 1 
282 1540 1572 3 
283 1540 1539 1 
284 2051 2315 2 
285 1823 2289 2 
286 1797 2021 2 
287 1064 1572 3 
288 1064 1063 1 
289 1064 1540 3 
290 1064 1302 3 
291 2315 2316 1 
292 1795 2053 2 
293 2574 1828 3 
294 2574 2573 1 
295 1799 2069 2 
296 3296 2264 3 
297 3296 3295 1 
298 2264 3036 3 
299 2264 2263 1 
300 3036 3296 3 
301 3036 3035 1 
302 3326 2812 3 
303 3326 3566 3 
304 3326 3325 1 
305 3566 2800 3 
306 3566 3565 1 
307 2812 3566 3 
308 2812 2800 3 
309 2812 2811 1 
310 2800 3326 3 
311 2800 2799 1 
312 3305 3581 2 
313 4085 4086 1 
314 4801 4802 1 
315 4567 5331 2 
316 4567 4568 1 
317 4568 4768 3 
318 4768 4767 1 
319 4812 5056 3 
320 4812 4811 1 
321 4808 4812 3 
322 4808 4807 1 
323 4767 4783 2 
324 4573 5309 2 
325 329 330 1 
326 329 561 2 
327 104 6096 3 
328 104 6028 3 
329 104 6082 3 
330 6076 6075 1 
331 6076 6082 3 
332 6028 6076 3 
333 6028 6096 3 
334 327 328 1 
335 6096 6076 3 
336 354 5806 3 
337 354 353 1 
338 6054 354 3 
339 6054 6053 1 
340 562 300 3 
341 562 561 1 
342 560 66 3 
343 560 559 1 
344 60 560 3 
345 60 59 1 
346 60 6056 3 
347 66 60 3 
348 66 65 1 
349 66 328 3 
350 84 590 3 
351 84 83 1 
352 6094 84 3 
353 6094 6093 1 
354 328 330 3 
355 328 6056 3 
356 330 6056 3 
357 330 6094 3 
358 590 6094 3 
359 590 589 1 
360 313 559 2 
361 69 589 2 
362 70 798 3 
363 70 69 1 
364 70 72 3 
365 72 314 3 
366 72 71 1 
367 72 798 3 
368 798 314 3 
369 798 797 1 
370 314 70 3 
371 314 313 1 
372 1334 2054 3 
373 1334 1333 1 
374 2054 2332 3 
375 2054 2053 1 
376 2332 1334 3 
377 2332 2331 1 
378 2071 2311 2 
379 2045 2046 1 
380 2045 3043 2 
381 3056 2330 3 
382 3056 3055 1 
383 2330 2594 3 
384 2330 2329 1 
385 2594 3056 3 
386 2594 2593 1 
387 2338 2072 3 
388 2072 2071 1 
389 2035 3587 2 
390 3607 3608 1 
391 3607 3813 2 
392 3322 3582 3 
393 3322 3321 1 
394 3582 4312 3 
395 3582 3581 1 
396 3062 3582 3 
397 3062 3061 1 
398 3062 4312 3 
399 3062 3322 3 
400 4312 3322 3 
401 4312 4311 1 
402 3568 4058 3 
403 3568 3567 1 
404 3568 4300 3 
405 4058 4292 3 
406 4058 4057 1 
407 4300 4058 3 
408 4300 4299 1 
409 4292 3568 3 
410 4292 4291 1 
411 4292 4300 3 
412 4816 4310 3 
413 4310 4309 1 
414 3835 4057 2 
415 4853 4854 1 
416 6061 6062 1 
417 6062 64 3 
418 5316 6088 3 
419 5315 5316 1 
420 5821 5822 1 
421 64 63 1 
422 5560 5808 3 
423 5560 5559 1 
424 5560 5794 3 
425 5794 5568 3 
426 5794 5793 1 
427 5794 5808 3 
428 5808 5568 3 
429 5808 5807 1 
430 5568 5560 3 
431 5568 5567 1 
432 300 76 3 
433 300 299 1 
434 300 324 3 
435 324 76 3 
436 324 323 1 
437 324 562 3 
438 5559 6053 2 
439 6049 6050 1 
440 103 104 1 
441 103 335 2 
442 75 6093 2 
443 1069 1327 2 
444 2823 2824 1 
445 1845 1846 1 
446 1825 1845 2 
447 1825 1826 1 
448 3037 3095 2 
449 2809 2810 1 
450 2828 3604 3 
451 2828 2827 1 
452 3604 3044 3 
453 3604 3603 1 
454 3044 2828 3 
455 3044 3043 1 
456 2337 2338 1 
457 3351 3352 1 
458 2810 2036 3 
459 2805 2806 1 
460 2805 3603 2 
461 3554 2820 3 
462 3554 3553 1 
463 2036 2035 1 
464 3061 4311 2 
465 3067 3321 2 
466 3847 3829 2 
467 3848 3830 3 
468 3848 3847 1 
469 3324 3848 3 
470 3324 3323 1 
471 3830 3324 3 
472 3830 3829 1 
473 4815 4816 1 
474 91 5327 2 
475 4339 4340 1 
476 6088 6087 1 
477 76 562 3 
478 76 75 1 
479 336 822 3 
480 336 335 1 
481 822 316 3 
482 822 821 1 
483 316 336 3 
484 316 315 1 
485 1328 1090 3 
486 1328 1327 1 
487 1086 1328 3 
488 1086 1085 1 
489 1090 1086 3 
490 1090 1089 1 
491 1091 1103 2 
492 1083 1084 1 
493 1083 1563 2 
494 842 841 1 
495 1097 2565 2 
496 2367 2368 1 
497 2359 2367 2 
498 1599 2831 2 
499 2360 2610 3 
500 2360 2359 1 
501 2815 2816 1 
502 2082 2081 1 
503 1846 2580 3 
504 2580 2579 1 
505 3297 3619 2 
506 3606 3864 3 
507 3606 3605 1 
508 3864 3092 3 
509 3864 3863 1 
510 3092 3606 3 
511 3092 3091 1 
512 3090 3089 1 
513 4338 3090 3 
514 3833 4571 2 
515 3833 3834 1 
516 5833 5851 2 
517 628 1148 3 
518 1148 1147 1 
519 5598 5858 3 
520 2134 1620 3 
521 595 1107 2 
522 840 839 1 
523 1620 1619 1 
524 1582 842 3 
525 2077 2078 1 
526 847 848 1 
527 847 2077 2 
528 1851 1852 1 
529 1092 1814 3 
530 1092 1091 1 
531 1092 1102 3 
532 596 1092 3 
533 596 595 1 
534 1605 1869 2 
535 1600 1599 1 
536 2320 1600 3 
537 2081 2089 2 
538 2816 2082 3 
539 3084 2826 3 
540 3084 3083 1 
541 2826 2862 3 
542 2826 2825 1 
543 2862 3084 3 
544 2862 2861 1 
545 2611 2612 1 
546 2611 3083 2 
547 2357 2358 1 
548 2351 2357 2 
549 3337 3338 1 
550 3593 3863 2 
551 4842 4608 3 
552 4842 4841 1 
553 4337 4338 1 
554 4569 4575 2 
555 3822 4572 3 
556 3822 3821 1 
557 3822 4610 3 
558 3850 3822 3 
559 3850 3849 1 
560 3850 4610 3 
561 4610 4572 3 
562 4610 4609 1 
563 4572 3850 3 
564 4572 4571 1 
565 4341 4342 1 
566 4117 4118 1 
567 4117 4341 2 
568 77 78 1 
569 77 823 2 
570 5858 5857 1 
571 653 1147 2 
572 6144 5616 3 
573 6144 6143 1 
574 5616 906 3 
575 5616 5615 1 
576 627 628 1 
577 1597 1619 2 
578 1869 1870 1 
579 1849 1850 1 
580 1589 1849 2 
581 1606 1630 3 
582 1606 1605 1 
583 2128 2136 3 
584 2128 2127 1 
585 1630 1836 3 
586 1630 1629 1 
587 2092 2128 3 
588 2092 2091 1 
589 2136 2092 3 
590 2136 2135 1 
591 1836 1606 3 
592 1836 1835 1 
593 2131 2132 1 
594 2131 2135 2 
595 2825 3339 2 
596 2366 2365 1 
597 2096 2366 3 
598 2363 2861 2 
599 2365 2595 2 
600 2595 2596 1 
601 2342 2864 3 
602 2342 2341 1 
603 2342 2364 3 
604 2364 2864 3 
605 2364 2363 1 
606 2364 2894 3 
607 3100 2854 3 
608 2864 2894 3 
609 2864 2863 1 
610 2894 2342 3 
611 2894 2893 1 
612 2854 2853 1 
613 3862 3624 3 
614 3624 3623 1 
615 3365 4365 2 
616 4570 4842 3 
617 4570 4569 1 
618 4570 4590 3 
619 4570 4608 3 
620 3594 3366 3 
621 3594 3593 1 
622 3366 3334 3 
623 3366 3365 1 
624 3334 3594 3 
625 3334 3333 1 
626 4608 4590 3 
627 4608 4607 1 
628 4590 4842 3 
629 4590 4589 1 
630 3626 4370 3 
631 3626 4870 3 
632 3626 4104 3 
633 3088 2842 3 
634 3088 3087 1 
635 3088 4106 3 
636 3875 3876 1 
637 3875 4589 2 
638 4121 4122 1 
639 4121 4607 2 
640 4870 4370 3 
641 4870 4869 1 
642 4821 4822 1 
643 4104 4870 3 
644 4104 4103 1 
645 4105 4609 2 
646 4370 4104 3 
647 4370 4369 1 
648 4596 4595 1 
649 4600 4596 3 
650 4595 5093 2 
651 5135 5347 2 
652 5872 372 3 
653 5872 5871 1 
654 5116 5872 3 
655 5116 5115 1 
656 6109 6110 1 
657 342 6086 3 
658 342 341 1 
659 102 342 3 
660 102 101 1 
661 654 864 3 
662 654 653 1 
663 370 654 3 
664 370 369 1 
665 370 616 3 
666 370 864 3 
667 1355 1356 1 
668 1079 1080 1 
669 1079 1355 2 
670 6142 1372 3 
671 1598 1597 1 
672 1618 2128 3 
673 1618 1617 1 
674 1618 2092 3 
675 1618 2136 3 
676 2361 2362 1 
677 1132 3134 3 
678 1132 1131 1 
679 2372 1132 3 
680 2372 2371 1 
681 3134 2372 3 
682 3134 3133 1 
683 1617 2855 2 
684 2362 1642 3 
685 1642 1641 1 
686 2629 2630 1 
687 3861 3862 1 
688 3874 3884 3 
689 3874 3873 1 
690 3124 2336 3 
691 3124 3123 1 
692 3124 3874 3 
693 3884 3124 3 
694 3884 3883 1 
695 3371 3372 1 
696 2336 3884 3 
697 2336 2335 1 
698 2336 3874 3 
699 3851 3852 1 
700 3625 3626 1 
701 3625 3851 2 
702 4103 4115 2 
703 362 5864 3 
704 5864 5863 1 
705 114 113 1 
706 6110 114 3 
707 347 5863 2 
708 864 616 3 
709 864 863 1 
710 6086 102 3 
711 6086 6085 1 
712 616 654 3 
713 616 615 1 
714 124 6114 3 
715 124 123 1 
716 124 128 3 
717 390 124 3 
718 390 389 1 
719 128 6114 3 
720 128 127 1 
721 128 390 3 
722 6114 390 3 
723 6114 6113 1 
724 1431 1432 1 
725 615 1431 2 
726 1356 1106 3 
727 6141 6142 1 
728 1105 1135 2 
729 1372 1371 1 
730 133 134 1 
731 1144 1143 1 
732 622 1144 3 
733 2903 3133 2 
734 2903 2904 1 
735 1391 2605 2 
736 3138 3384 3 
737 3384 3383 1 
738 2877 3897 2 
739 4634 4633 1 
740 3613 4633 2 
741 3621 4421 2 
742 4116 4422 3 
743 4116 4115 1 
744 5122 4120 3 
745 5122 5121 1 
746 5356 5122 3 
747 5356 5355 1 
748 4898 4897 1 
749 5631 5632 1 
750 5395 5631 2 
751 5916 5624 3 
752 5916 5915 1 
753 5910 5624 3 
754 5910 5909 1 
755 5910 5916 3 
756 5128 5916 3 
757 5128 5127 1 
758 5128 5910 3 
759 121 122 1 
760 121 123 2 
761 367 368 1 
762 367 6141 2 
763 132 384 3 
764 132 131 1 
765 132 6122 3 
766 384 902 3 
767 384 383 1 
768 1136 1135 1 
769 1134 1136 3 
770 1650 1649 1 
771 1662 1650 3 
772 621 622 1 
773 621 2173 2 
774 1376 1375 1 
775 414 1376 3 
776 1937 1938 1 
777 2648 2662 3 
778 2662 2661 1 
779 2888 2872 3 
780 2888 2887 1 
781 2872 2402 3 
782 2872 2871 1 
783 2402 2888 3 
784 2402 2401 1 
785 2871 2907 2 
786 3370 3369 1 
787 3162 3370 3 
788 4396 4634 3 
789 4395 4396 1 
790 4153 4154 1 
791 4407 4408 1 
792 4407 4411 2 
793 3614 4116 3 
794 3614 3613 1 
795 4422 3614 3 
796 4422 4421 1 
797 5121 5143 2 
798 4676 5396 3 
799 4676 4675 1 
800 4852 4394 3 
801 4852 4851 1 
802 5409 5410 1 
803 5409 5427 2 
804 5148 4676 3 
805 5148 5147 1 
806 5396 5148 3 
807 5396 5395 1 
808 4662 5396 3 
809 4662 4661 1 
810 4662 4676 3 
811 4662 5148 3 
812 5394 4678 3 
813 5393 5394 1 
814 5624 5128 3 
815 5624 5623 1 
816 5623 5895 2 
817 1163 1164 1 
818 6168 5392 3 
819 151 152 1 
820 151 641 2 
821 413 1429 2 
822 413 414 1 
823 940 2130 3 
824 940 939 1 
825 940 1176 3 
826 2130 1644 3 
827 2130 2129 1 
828 1176 2130 3 
829 1176 1175 1 
830 1176 1644 3 
831 1644 940 3 
832 1644 1643 1 
833 1908 1907 1 
834 2148 1908 3 
835 2129 2175 2 
836 2622 1364 3 
837 2622 2621 1 
838 2661 2667 2 
839 2933 3649 2 
840 3649 3650 1 
841 3170 2908 3 
842 3170 3169 1 
843 2664 3170 3 
844 2664 2663 1 
845 2908 2664 3 
846 2908 2907 1 
847 2934 3174 3 
848 2934 2933 1 
849 4142 4141 1 
850 3665 4147 2 
851 3900 4142 3 
852 4387 4388 1 
853 4387 4395 2 
854 3390 4412 3 
855 3707 3708 1 
856 4412 4411 1 
857 3377 3378 1 
858 4393 5131 2 
859 5154 5144 3 
860 5144 5143 1 
861 4661 4929 2 
862 4929 4930 1 
863 4675 4887 2 
864 5617 5618 1 
865 4399 5617 2 
866 5642 404 3 
867 5642 5641 1 
868 404 5926 3 
869 404 403 1 
870 5926 5642 3 
871 5926 5925 1 
872 5392 5391 1 
873 892 164 3 
874 892 891 1 
875 690 5922 3 
876 690 689 1 
877 690 892 3 
878 5922 892 3 
879 5922 5921 1 
880 164 5922 3 
881 164 163 1 
882 164 690 3 
883 2393 2394 1 
884 1894 1922 3 
885 1894 1893 1 
886 1922 1700 3 
887 1922 1921 1 
888 1700 1894 3 
889 1700 1699 1 
890 2663 2683 2 
891 2159 2421 2 
892 2159 2160 1 
893 3402 2900 3 
894 2900 2899 1 
895 4430 4168 3 
896 4430 4429 1 
897 4430 4674 3 
898 4168 4428 3 
899 4168 4167 1 
900 4674 4168 3 
901 4674 4673 1 
902 3378 4134 3 
903 4134 4133 1 
904 4195 5155 2 
905 4947 4948 1 
906 4921 4922 1 
907 4921 4947 2 
908 4389 5125 2 
909 4390 5370 3 
910 4390 4389 1 
911 4390 5416 3 
912 5166 4390 3 
913 5166 5165 1 
914 5370 5166 3 
915 5370 5369 1 
916 5370 5416 3 
917 5416 5166 3 
918 5416 5415 1 
919 5413 5659 2 
920 5660 5956 3 
921 5660 5659 1 
922 6167 6168 1 
923 6167 6189 2 
924 163 6181 2 
925 6182 5928 3 
926 6182 6181 1 
927 673 951 2 
928 448 652 3 
929 448 447 1 
930 439 665 2 
931 946 448 3 
932 946 945 1 
933 652 946 3 
934 652 651 1 
935 952 460 3 
936 952 951 1 
937 692 702 3 
938 692 691 1 
939 692 952 3 
940 702 952 3 
941 702 701 1 
942 6213 6214 1 
943 655 6213 2 
944 1886 1885 1 
945 2394 1886 3 
946 1665 1666 1 
947 1453 1665 2 
948 1454 1453 1 
949 2183 2413 2 
950 1885 2217 2 
951 2185 2193 2 
952 1935 2927 2 
953 2927 2928 1 
954 2186 2185 1 
955 2684 2902 3 
956 2684 2683 1 
957 2684 3392 3 
958 2198 2684 3 
959 2198 2197 1 
960 2902 2198 3 
961 2902 2901 1 
962 2902 3392 3 
963 3392 2198 3 
964 3392 3391 1 
965 2928 2186 3 
966 2674 3186 3 
967 2674 2673 1 
968 2192 3186 3 
969 2192 2191 1 
970 2192 2674 3 
971 2670 2192 3 
972 2670 2669 1 
973 2670 2674 3 
974 3186 2670 3 
975 3186 3185 1 
976 2160 3176 3 
977 3176 3175 1 
978 4167 4457 2 
979 4423 4961 2 
980 4441 4442 1 
981 4913 5165 2 
982 5415 5673 2 
983 5453 5454 1 
984 5673 5674 1 
985 5183 5453 2 
986 6138 5406 3 
987 5406 5405 1 
988 5920 6182 3 
989 5920 5919 1 
990 174 5978 3 
991 174 173 1 
992 5978 6190 3 
993 5978 5977 1 
994 6190 174 3 
995 6190 6189 1 
996 6195 6196 1 
997 221 222 1 
998 5993 5994 1 
999 451 452 1 
1000 451 5993 2 
1001 452 214 3 
1002 214 213 1 
1003 436 1180 3 
1004 436 435 1 
1005 458 436 3 
1006 458 457 1 
1007 1180 458 3 
1008 1180 1179 1 
1009 1701 1963 2 
1010 3171 3172 1 
1011 3171 3189 2 
1012 3189 3190 1 
1013 4672 4671 1 
1014 4220 4672 3 
1015 4425 4955 2 
1016 4164 4450 3 
1017 3932 3934 3 
1018 3932 3931 1 
1019 3934 4956 3 
1020 3934 3933 1 
1021 3429 3693 2 
1022 5189 5201 2 
1023 4424 4684 3 
1024 4424 4423 1 
1025 5201 5202 1 
1026 5458 5224 3 
1027 4683 4945 2 
1028 5457 5458 1 
1029 4684 4162 3 
1030 4684 4683 1 
1031 4162 4216 3 
1032 4162 4161 1 
1033 4162 4424 3 
1034 4216 4684 3 
1035 4216 4215 1 
1036 4216 4424 3 
1037 5224 5223 1 
1038 3937 4185 2 
1039 4185 4186 1 
1040 3938 4414 3 
1041 3938 3937 1 
1042 3938 5160 3 
1043 5160 4414 3 
1044 5160 5159 1 
1045 4414 4914 3 
1046 4414 4413 1 
1047 5209 5210 1 
1048 4914 3938 3 
1049 4914 4913 1 
1050 4914 5160 3 
1051 6222 6221 1 
1052 5210 6222 3 
1053 5184 5183 1 
1054 5671 5672 1 
1055 5426 5184 3 
1056 5206 5964 3 
1057 5206 5205 1 
1058 5206 5938 3 
1059 5964 6174 3 
1060 5964 5963 1 
1061 6174 5206 3 
1062 6174 6173 1 
1063 5938 5964 3 
1064 5938 5937 1 
1065 5938 6174 3 
1066 189 190 1 
1067 189 695 2 
1068 198 197 1 
1069 222 178 3 
1070 178 177 1 
1071 1217 1941 2 
1072 1964 1720 3 
1073 1964 1963 1 
1074 1720 1719 1 
1075 1942 1964 3 
1076 1942 1941 1 
1077 1200 1960 3 
1078 1200 1199 1 
1079 1200 1954 3 
1080 2973 2974 1 
1081 1999 2973 2 
1082 2195 2196 1 
1083 2195 2207 2 
1084 3202 2924 3 
1085 2701 2702 1 
1086 2701 3443 2 
1087 3201 3202 1 
1088 2924 2923 1 
1089 2923 2947 2 
1090 2929 2930 1 
1091 3661 3927 2 
1092 4163 4164 1 
1093 3939 4163 2 
1094 4686 4716 3 
1095 3933 3959 2 
1096 4716 4715 1 
1097 3975 3976 1 
1098 3701 3975 2 
1099 4956 3932 3 
1100 4956 4955 1 
1101 3694 4956 3 
1102 3694 3693 1 
1103 3694 3934 3 
1104 3694 3932 3 
1105 4685 4686 1 
1106 4215 4437 2 
1107 4161 5199 2 
1108 4710 4709 1 
1109 5202 4710 3 
1110 4209 5451 2 
1111 4697 5457 2 
1112 4448 4210 3 
1113 4448 4447 1 
1114 4698 4448 3 
1115 4698 4697 1 
1116 4210 4698 3 
1117 4210 4209 1 
1118 5723 5724 1 
1119 5723 6221 2 
1120 5724 5714 3 
1121 462 198 3 
1122 461 462 1 
1123 179 461 2 
1124 6164 5486 3 
1125 6164 6163 1 
1126 923 924 1 
1127 472 471 1 
1128 699 1215 2 
1129 720 968 3 
1130 720 719 1 
1131 968 1710 3 
1132 968 967 1 
1133 1710 720 3 
1134 1710 1709 1 
1135 1204 1684 3 
1136 1204 1203 1 
1137 1716 1204 3 
1138 1716 1715 1 
1139 1684 1716 3 
1140 1684 1683 1 
1141 2208 2207 1 
1142 2208 3432 3 
1143 2208 2702 3 
1144 2445 2446 1 
1145 2445 3207 2 
1146 2460 3472 3 
1147 2460 2459 1 
1148 3459 3957 2 
1149 3473 3474 1 
1150 3473 4193 2 
1151 3976 3460 3 
1152 3460 3459 1 
1153 4198 3960 3 
1154 4198 4197 1 
1155 4194 4198 3 
1156 4194 4193 1 
1157 4194 4208 3 
1158 3960 4194 3 
1159 3960 3959 1 
1160 3960 4208 3 
1161 4208 4198 3 
1162 4208 4207 1 
1163 4211 4465 2 
1164 4438 4206 3 
1165 4438 4437 1 
1166 4438 4474 3 
1167 4466 5452 3 
1168 4466 4465 1 
1169 5200 4466 3 
1170 5200 5199 1 
1171 5452 5200 3 
1172 5452 5451 1 
1173 4225 4935 2 
1174 5714 5713 1 
1175 5464 232 3 
1176 5464 5463 1 
1177 232 466 3 
1178 232 231 1 
1179 7 497 2 
1180 6230 498 3 
1181 6230 6229 1 
1182 498 732 3 
1183 498 497 1 
1184 732 6230 3 
1185 732 731 1 
1186 1468 1726 3 
1187 1459 1709 2 
1188 1460 2216 3 
1189 1460 1459 1 
1190 1460 2462 3 
1191 2230 2462 3 
1192 3208 2190 3 
1193 3208 3984 3 
1194 3208 3207 1 
1195 3984 2450 3 
1196 3984 3983 1 
1197 2450 3208 3 
1198 2450 2449 1 
1199 2190 3984 3 
1200 2190 2450 3 
1201 2190 2189 1 
1202 3979 3983 2 
1203 4202 3462 3 
1204 4202 4201 1 
1205 3462 3482 3 
1206 3462 3461 1 
1207 3482 4202 3 
1208 3482 3481 1 
1209 4969 4987 2 
1210 4016 4232 3 
1211 4232 4231 1 
1212 4479 4713 2 
1213 4970 4480 3 
1214 4970 4969 1 
1215 463 971 2 
1216 6000 5456 3 
1217 6000 5999 1 
1218 4998 6000 3 
1219 4998 4997 1 
1220 2 4998 3 
1221 2 1 1 
1222 2 6000 3 
1223 2 5456 3 
1224 6025 6026 1 
1225 225 6025 2 
1226 971 972 1 
1227 5456 4998 3 
1228 5456 5455 1 
1229 972 1004 3 
1230 988 260 3 
1231 987 988 1 
1232 987 6229 2 
1233 1196 966 3 
1234 1196 1195 1 
1235 990 738 3 
1236 990 989 1 
1237 990 1196 3 
1238 738 1196 3 
1239 738 737 1 
1240 966 738 3 
1241 966 965 1 
1242 966 990 3 
1243 469 737 2 
1244 1982 1460 3 
1245 1982 1981 1 
1246 1982 2462 3 
1247 2229 2230 1 
1248 1729 2229 2 
1249 2216 1982 3 
1250 2216 2215 1 
1251 2240 2239 1 
1252 1994 2240 3 
1253 1498 1994 3 
1254 1498 2240 3 
1255 1718 2240 3 
1256 1718 1994 3 
1257 1212 1498 3 
1258 2745 2746 1 
1259 1995 2745 2 
1260 2189 2953 2 
1261 3453 3454 1 
1262 3758 3966 3 
1263 3758 3757 1 
1264 4480 4260 3 
1265 4480 4479 1 
1266 4260 4970 3 
1267 4260 4259 1 
1268 4711 4712 1 
1269 4251 4711 2 
1270 4251 4252 1 
1271 4231 4751 2 
1272 4259 4721 2 
1273 5234 4484 3 
1274 5234 5233 1 
1275 5233 5509 2 
1276 5995 5996 1 
1277 14 6228 3 
1278 14 13 1 
1279 14 6226 3 
1280 5480 14 3 
1281 5480 5479 1 
1282 508 5982 3 
1283 508 507 1 
1284 254 508 3 
1285 254 253 1 
1286 5974 226 3 
1287 5974 5973 1 
1288 226 236 3 
1289 226 225 1 
1290 242 5974 3 
1291 242 226 3 
1292 242 241 1 
1293 5982 254 3 
1294 5982 5981 1 
1295 236 242 3 
1296 236 5974 3 
1297 236 235 1 
1298 4997 5729 2 
1299 5455 6223 2 
1300 5729 5730 1 
1301 475 476 1 
1302 45 46 1 
1303 45 5999 2 
1304 259 753 2 
1305 753 754 1 
1306 1240 6 3 
1307 6 5 1 
1308 723 989 2 
1309 1254 1232 3 
1310 1254 1253 1 
1311 1254 2246 3 
1312 1717 1718 1 
1313 2472 2471 1 
1314 1992 2472 3 
1315 1492 1254 3 
1316 1492 1491 1 
1317 2246 1492 3 
1318 2246 2245 1 
1319 1232 1492 3 
1320 1232 1231 1 
1321 1232 2246 3 
1322 2491 2492 1 
1323 2506 2505 1 
1324 2223 3447 2 
1325 3447 3448 1 
1326 2746 1996 3 
1327 1996 1995 1 
1328 2748 2210 3 
1329 2748 2747 1 
1330 2210 3970 3 
1331 2210 2209 1 
1332 3970 2748 3 
1333 3970 3969 1 
1334 3493 4021 2 
1335 4530 4462 3 
1336 4530 4529 1 
1337 4984 4254 3 
1338 4254 4253 1 
1339 4462 4748 3 
1340 4462 4461 1 
1341 4748 4530 3 
1342 4748 4747 1 
1343 5244 5243 1 
1344 4736 5244 3 
1345 4235 4236 1 
1346 4235 4461 2 
1347 4976 4975 1 
1348 5500 4976 3 
1349 4758 4724 3 
1350 5504 4752 3 
1351 5504 5503 1 
1352 4752 5790 3 
1353 4752 4751 1 
1354 5790 5504 3 
1355 5790 5789 1 
1356 4977 4978 1 
1357 4283 4975 2 
1358 6228 5480 3 
1359 6228 6227 1 
1360 6226 5480 3 
1361 6226 6225 1 
1362 6226 6228 3 
1363 266 265 1 
1364 5981 6007 2 
1365 6002 244 3 
1366 244 243 1 
1367 520 30 3 
1368 520 519 1 
1369 6016 520 3 
1370 6016 6015 1 
1371 30 6016 3 
1372 30 29 1 
1373 764 310 3 
1374 310 309 1 
1375 249 5517 2 
1376 1737 1738 1 
1377 233 269 2 
1378 234 233 1 
1379 269 270 1 
1380 711 721 2 
1381 485 1239 2 
1382 509 1243 2 
1383 1241 1242 1 
1384 1500 1524 3 
1385 1500 1499 1 
1386 1013 1241 2 
1387 4 1500 3 
1388 4 3 1 
1389 4 1750 3 
1390 4 1524 3 
1391 1524 1750 3 
1392 1524 1523 1 
1393 741 742 1 
1394 741 973 2 
1395 1280 1786 3 
1396 1280 1279 1 
1397 1508 1280 3 
1398 1508 1507 1 
1399 1508 1786 3 
1400 1019 1779 2 
1401 1008 1280 3 
1402 1008 1007 1 
1403 1008 1508 3 
1404 1763 2483 2 
1405 1748 1766 3 
1406 1748 1747 1 
1407 2012 1748 3 
1408 2012 2011 1 
1409 1517 1518 1 
1410 1271 1517 2 
1411 2011 2741 2 
1412 1751 1752 1 
1413 1751 2769 2 
1414 2269 2981 2 
1415 2254 2280 3 
1416 2254 2786 3 
1417 1518 2492 3 
1418 2280 2279 1 
1419 2280 2492 3 
1420 2280 2786 3 
1421 2495 2496 1 
1422 3224 2214 3 
1423 2507 2755 2 
1424 2540 2780 3 
1425 2540 2539 1 
1426 2490 2248 3 
1427 2490 2489 1 
1428 2248 3012 3 
1429 2248 2247 1 
1430 2778 3006 3 
1431 2778 2777 1 
1432 3006 2992 3 
1433 3006 3005 1 
1434 3002 2778 3 
1435 3002 3001 1 
1436 3002 3006 3 
1437 3986 3510 3 
1438 3986 3985 1 
1439 3010 3986 3 
1440 3010 3009 1 
1441 2992 2778 3 
1442 2992 2991 1 
1443 2992 3002 3 
1444 3510 3010 3 
1445 3510 3509 1 
1446 2017 2513 2 
1447 3012 2490 3 
1448 3012 3011 1 
1449 3484 2998 3 
1450 3484 3483 1 
1451 3227 3303 2 
1452 2995 3009 2 
1453 3303 3304 1 
1454 2514 3484 3 
1455 2514 2513 1 
1456 3985 4257 2 
1457 3522 3521 1 
1458 3518 3246 3 
1459 3759 3767 2 
1460 3246 3245 1 
1461 3030 3756 3 
1462 3030 3029 1 
1463 2983 2984 1 
1464 2983 2997 2 
1465 3004 3030 3 
1466 3004 3003 1 
1467 3756 3004 3 
1468 3756 3755 1 
1469 3991 3992 1 
1470 2784 2783 1 
1471 3502 3501 1 
1472 3992 3502 3 
1473 3504 4022 3 
1474 4022 4021 1 
1475 3505 3765 2 
1476 3013 4513 2 
1477 4514 4513 1 
1478 3016 3798 3 
1479 3016 3015 1 
1480 3506 4504 3 
1481 3506 3505 1 
1482 3798 3812 3 
1483 3798 3797 1 
1484 4271 4743 2 
1485 3769 4503 2 
1486 3812 3016 3 
1487 3812 3811 1 
1488 4749 4750 1 
1489 4749 5045 2 
1490 4228 4227 1 
1491 4245 4529 2 
1492 4289 4497 2 
1493 4250 4249 1 
1494 4750 4250 3 
1495 4244 4243 1 
1496 4020 4244 3 
1497 4007 4008 1 
1498 4007 4785 2 
1499 4999 5237 2 
1500 4243 4495 2 
1501 4509 4727 2 
1502 3771 4723 2 
1503 4275 5525 2 
1504 4510 5530 3 
1505 4510 4509 1 
1506 4493 4735 2 
1507 4256 4255 1 
1508 5259 5260 1 
1509 5259 5737 2 
1510 4775 5011 2 
1511 5242 4742 3 
1512 5242 5241 1 
1513 4776 4510 3 
1514 4776 4775 1 
1515 5984 5242 3 
1516 5984 5983 1 
1517 4762 5242 3 
1518 4762 4761 1 
1519 4762 5984 3 
1520 5526 5738 3 
1521 5526 5525 1 
1522 5526 5744 3 
1523 5738 4494 3 
1524 5738 5737 1 
1525 4494 5744 3 
1526 4494 4493 1 
1527 4494 5526 3 
1528 5744 5738 3 
1529 5744 5743 1 
1530 5481 5482 1 
1531 5249 5250 1 
1532 5249 5481 2 
1533 4781 5529 2 
1534 4742 4762 3 
1535 4742 4741 1 
1536 4742 5984 3 
1537 5013 5014 1 
1538 27 28 1 
1539 27 6033 2 
1540 5255 5747 2 
1541 5003 5515 2 
1542 5515 5516 1 
1543 5784 6038 3 
1544 6034 500 3 
1545 6034 6033 1 
1546 500 16 3 
1547 500 499 1 
1548 16 6034 3 
1549 16 15 1 
1550 6038 6037 1 
1551 6020 5770 3 
1552 6020 6019 1 
1553 512 511 1 
1554 512 274 3 
1555 512 5766 3 
1556 22 512 3 
1557 22 274 3 
1558 22 6242 3 
1559 6242 6010 3 
1560 5766 5765 1 
1561 5766 6242 3 
1562 6010 6009 1 
1563 6010 5766 3 
1564 274 273 1 
1565 274 6010 3 
1566 34 248 3 
1567 34 33 1 
1568 34 6022 3 
1569 12 34 3 
1570 12 11 1 
1571 12 6022 3 
1572 309 513 2 
1573 248 12 3 
1574 248 247 1 
1575 6022 248 3 
1576 6022 6021 1 
1577 6052 748 3 
1578 271 763 2 
1579 763 764 1 
1580 257 6241 2 
1581 257 258 1 
1582 6241 6242 1 
1583 501 502 1 
1584 33 501 2 
1585 6051 6052 1 
1586 11 6051 2 
1587 748 747 1 
1588 788 6040 3 
1589 788 787 1 
1590 521 1067 2 
1591 272 1036 3 
1592 272 271 1 
1593 272 282 3 
1594 1067 1068 1 
1595 1036 286 3 
1596 1036 1035 1 
1597 3 747 2 
1598 286 272 3 
1599 286 285 1 
1600 268 1024 3 
1601 1024 1023 1 
1602 767 768 1 
1603 767 1043 2 
1604 787 1029 2 
1605 1244 778 3 
1606 1244 1243 1 
1607 486 485 1 
1608 1042 1244 3 
1609 1042 1041 1 
1610 1242 486 3 
1611 515 516 1 
1612 1279 2019 2 
1613 1038 772 3 
1614 1038 1037 1 
1615 1032 1038 3 
1616 1032 1031 1 
1617 772 1032 3 
1618 772 771 1 
1619 319 1545 2 
1620 1766 1724 3 
1621 1766 1765 1 
1622 1766 2012 3 
1623 1525 1765 2 
1624 1724 1748 3 
1625 1724 1723 1 
1626 1724 2012 3 
1627 2770 2294 3 
1628 2770 2769 1 
1629 2001 2002 1 
1630 2001 2485 2 
1631 2266 2770 3 
1632 2266 2265 1 
1633 2294 2266 3 
1634 2294 2293 1 
1635 2274 2266 3 
1636 2274 2273 1 
1637 2274 2294 3 
1638 2274 2770 3 
1639 2503 2504 1 
1640 2503 2739 2 
1641 1723 2253 2 
1642 2253 2254 1 
1643 2785 2786 1 
1644 2525 2785 2 
1645 2504 2740 3 
1646 2504 2982 3 
1647 2740 2739 1 
1648 2740 2982 3 
1649 2982 2981 1 
1650 2732 1504 3 
1651 2732 2731 1 
1652 2732 2762 3 
1653 2252 2732 3 
1654 2252 2251 1 
1655 2252 2762 3 
1656 2762 1504 3 
1657 2762 2761 1 
1658 1504 2252 3 
1659 1504 1503 1 
1660 1519 2275 2 
1661 2791 3267 2 
1662 4257 4258 1 
1663 2768 2792 3 
1664 2768 2767 1 
1665 2792 3268 3 
1666 2792 2791 1 
1667 3268 2768 3 
1668 3268 3267 1 
1669 3788 2262 3 
1670 3788 3787 1 
1671 2518 3262 3 
1672 2518 2517 1 
1673 2518 3788 3 
1674 3261 3545 2 
1675 2262 3262 3 
1676 2262 2261 1 
1677 2262 2518 3 
1678 3262 3788 3 
1679 3262 3261 1 
1680 2790 3008 3 
1681 2790 2789 1 
1682 3024 2790 3 
1683 3024 3023 1 
1684 3024 3524 3 
1685 3524 2790 3 
1686 3524 3523 1 
1687 3304 3550 3 
1688 4258 3522 3 
1689 3550 3549 1 
1690 2524 3534 3 
1691 2524 2523 1 
1692 2524 3790 3 
1693 3534 3316 3 
1694 3534 3533 1 
1695 3790 3534 3 
1696 3790 3789 1 
1697 3549 3779 2 
1698 3316 2524 3 
1699 3316 3315 1 
1700 3316 3790 3 
1701 3287 3521 2 
1702 3290 2784 3 
1703 3778 3768 3 
1704 3778 3777 1 
1705 3768 3764 3 
1706 3768 3767 1 
1707 3764 3778 3 
1708 3764 3763 1 
1709 4046 4028 3 
1710 4046 4045 1 
1711 3544 4046 3 
1712 3544 3543 1 
1713 4028 3544 3 
1714 4028 4027 1 
1715 3014 3544 3 
1716 3014 3013 1 
1717 3014 4028 3 
1718 3014 4046 3 
1719 3289 3290 1 
1720 3527 3528 1 
1721 3527 3777 2 
1722 3512 3526 3 
1723 3526 3525 1 
1724 3543 3811 2 
1725 4523 5035 2 
1726 3770 3769 1 
1727 4017 4285 2 
1728 4285 4286 1 
1729 4270 4272 3 
1730 4270 4269 1 
1731 4270 4278 3 
1732 4272 4278 3 
1733 4272 4271 1 
1734 4266 4272 3 
1735 4266 4265 1 
1736 4266 4270 3 
1737 4278 4266 3 
1738 4278 4277 1 
1739 4788 4246 3 
1740 4788 4787 1 
1741 4274 4788 3 
1742 4274 4273 1 
1743 4274 4526 3 
1744 4246 4526 3 
1745 4246 4245 1 
1746 4246 4274 3 
1747 4526 4788 3 
1748 4526 4525 1 
1749 4019 4020 1 
1750 4056 4055 1 
1751 4525 4789 2 
1752 4810 4056 3 
1753 4273 5297 2 
1754 4261 4267 2 
1755 5530 4776 3 
1756 5530 5529 1 