ITEM: TIMESTEP
4400
ITEM: NUMBER OF ENTRIES
3125
ITEM: BOX BOUNDS pp pp ff
0.0000000000000000e+00 7.2168784000000002e+01
0.0000000000000000e+00 7.2168784000000002e+01
0.0000000000000000e+00 1.2000000000000000e+01
ITEM: ENTRIES index c_1[1] c_1[2] c_1[3]
1 765 766 1 
2 501 502 1 
3 1251 1252 1 
4 1755 1756 1 
5 1753 1754 1 
6 1761 1762 1 
7 2001 2002 1 
8 1751 1752 1 
9 2481 2482 1 
10 2261 2262 1 
11 2255 2256 1 
12 2503 2504 1 
13 3241 3242 1 
14 3493 3494 1 
15 3003 3004 1 
16 3501 3502 1 
17 3751 3752 1 
18 4011 4012 1 
19 3761 3762 1 
20 4001 4002 1 
21 4253 4254 1 
22 4761 4762 1 
23 5001 5002 1 
24 4511 4512 1 
25 5013 5014 1 
26 5003 5004 1 
27 5511 5512 1 
28 5513 5514 1 
29 6001 6002 1 
30 13 14 1 
31 523 524 1 
32 271 272 1 
33 1021 1022 1 
34 1013 1014 1 
35 1271 1272 1 
36 1763 1764 1 
37 1511 1512 1 
38 1521 1522 1 
39 2281 2282 1 
40 2273 2274 1 
41 2283 2284 1 
42 2761 2762 1 
43 2251 2252 1 
44 2521 2522 1 
45 2513 2514 1 
46 2771 2772 1 
47 2765 2766 1 
48 3021 3022 1 
49 2783 2784 1 
50 3755 3756 1 
51 4261 4262 1 
52 4763 4764 1 
53 5253 5254 1 
54 5035 5036 1 
55 5533 5534 1 
56 5263 5264 1 
57 5761 5762 1 
58 6011 6012 1 
59 6021 6022 1 
60 261 262 1 
61 283 284 1 
62 33 34 1 
63 531 532 1 
64 521 522 1 
65 761 762 1 
66 281 282 1 
67 775 776 1 
68 1033 1034 1 
69 1531 1532 1 
70 1783 1784 1 
71 2031 2032 1 
72 2023 2024 1 
73 1773 1774 1 
74 2271 2272 1 
75 2285 2286 1 
76 3281 3282 1 
77 3535 3536 1 
78 4523 4524 1 
79 4031 4032 1 
80 4513 4514 1 
81 4271 4272 1 
82 4281 4282 1 
83 4533 4534 1 
84 4283 4284 1 
85 4531 4532 1 
86 5015 5016 1 
87 4783 4784 1 
88 5011 5012 1 
89 5531 5532 1 
90 11 12 1 
91 21 22 1 
92 6041 6042 1 
93 295 296 1 
94 791 792 1 
95 1043 1044 1 
96 1771 1772 1 
97 1295 1296 1 
98 1041 1042 1 
99 1031 1032 1 
100 2041 2042 1 
101 1541 1542 1 
102 1545 1546 1 
103 1283 1284 1 
104 2033 2034 1 
105 1781 1782 1 
106 1551 1552 1 
107 2021 2022 1 
108 2523 2524 1 
109 3041 3042 1 
110 3043 3044 1 
111 3035 3036 1 
112 3291 3292 1 
113 3541 3542 1 
114 3543 3544 1 
115 3781 3782 1 
116 4301 4302 1 
117 4541 4542 1 
118 5031 5032 1 
119 5291 5292 1 
120 5041 5042 1 
121 5543 5544 1 
122 5541 5542 1 
123 5781 5782 1 
124 5791 5792 1 
125 5801 5802 1 
126 6047 6048 1 
127 6031 6032 1 
128 5803 5804 1 
129 43 44 1 
130 561 562 1 
131 543 544 1 
132 553 554 1 
133 803 804 1 
134 551 552 1 
135 801 802 1 
136 815 816 1 
137 1293 1294 1 
138 1063 1064 1 
139 1553 1554 1 
140 1791 1792 1 
141 1301 1302 1 
142 1291 1292 1 
143 2061 2062 1 
144 1793 1794 1 
145 2291 2292 1 
146 2801 2802 1 
147 3051 3052 1 
148 2811 2812 1 
149 3293 3294 1 
150 3033 3034 1 
151 3283 3284 1 
152 3791 3792 1 
153 3559 3560 1 
154 4051 4052 1 
155 4061 4062 1 
156 4551 4552 1 
157 4537 4538 1 
158 4813 4814 1 
159 5051 5052 1 
160 4803 4804 1 
161 5301 5302 1 
162 5551 5552 1 
163 6051 6052 1 
164 5793 5794 1 
165 6063 6064 1 
166 5813 5814 1 
167 51 52 1 
168 5805 5806 1 
169 6043 6044 1 
170 61 62 1 
171 313 314 1 
172 321 322 1 
173 303 304 1 
174 827 828 1 
175 1321 1322 1 
176 1821 1822 1 
177 2051 2052 1 
178 2311 2312 1 
179 2301 2302 1 
180 2571 2572 1 
181 2561 2562 1 
182 2823 2824 1 
183 2543 2544 1 
184 2551 2552 1 
185 3061 3062 1 
186 2813 2814 1 
187 2821 2822 1 
188 3313 3314 1 
189 3311 3312 1 
190 3301 3302 1 
191 3801 3802 1 
192 4325 4326 1 
193 4333 4334 1 
194 4823 4824 1 
195 4811 4812 1 
196 4573 4574 1 
197 5071 5072 1 
198 5321 5322 1 
199 5823 5824 1 
200 6061 6062 1 
201 73 74 1 
202 71 72 1 
203 563 564 1 
204 323 324 1 
205 581 582 1 
206 1071 1072 1 
207 1073 1074 1 
208 1083 1084 1 
209 1563 1564 1 
210 1573 1574 1 
211 1831 1832 1 
212 1571 1572 1 
213 2075 2076 1 
214 2581 2582 1 
215 1811 1812 1 
216 2583 2584 1 
217 3071 3072 1 
218 3321 3322 1 
219 3551 3552 1 
220 3561 3562 1 
221 3565 3566 1 
222 3571 3572 1 
223 3581 3582 1 
224 3589 3590 1 
225 4321 4322 1 
226 3833 3834 1 
227 4581 4582 1 
228 4571 4572 1 
229 4341 4342 1 
230 4825 4826 1 
231 5087 5088 1 
232 5811 5812 1 
233 5327 5328 1 
234 5561 5562 1 
235 5581 5582 1 
236 5821 5822 1 
237 5571 5572 1 
238 341 342 1 
239 6085 6086 1 
240 831 832 1 
241 601 602 1 
242 821 822 1 
243 1323 1324 1 
244 1581 1582 1 
245 2073 2074 1 
246 1843 1844 1 
247 2341 2342 1 
248 2331 2332 1 
249 2091 2092 1 
250 2321 2322 1 
251 2833 2834 1 
252 3343 3344 1 
253 3331 3332 1 
254 3333 3334 1 
255 3841 3842 1 
256 4071 4072 1 
257 4081 4082 1 
258 4327 4328 1 
259 4605 4606 1 
260 4821 4822 1 
261 4831 4832 1 
262 5073 5074 1 
263 5345 5346 1 
264 5085 5086 1 
265 5841 5842 1 
266 6081 6082 1 
267 6083 6084 1 
268 6095 6096 1 
269 93 94 1 
270 101 102 1 
271 591 592 1 
272 595 596 1 
273 1351 1352 1 
274 841 842 1 
275 1341 1342 1 
276 1361 1362 1 
277 1591 1592 1 
278 1353 1354 1 
279 1863 1864 1 
280 2333 2334 1 
281 2345 2346 1 
282 2351 2352 1 
283 2353 2354 1 
284 2611 2612 1 
285 3091 3092 1 
286 3351 3352 1 
287 3093 3094 1 
288 3593 3594 1 
289 3361 3362 1 
290 3853 3854 1 
291 3851 3852 1 
292 3601 3602 1 
293 3857 3858 1 
294 4093 4094 1 
295 3863 3864 1 
296 4091 4092 1 
297 4083 4084 1 
298 4611 4612 1 
299 4591 4592 1 
300 4833 4834 1 
301 5097 5098 1 
302 5091 5092 1 
303 5351 5352 1 
304 5105 5106 1 
305 5611 5612 1 
306 5591 5592 1 
307 333 334 1 
308 113 114 1 
309 1091 1092 1 
310 613 614 1 
311 1601 1602 1 
312 1605 1606 1 
313 2111 2112 1 
314 2615 2616 1 
315 2861 2862 1 
316 3125 3126 1 
317 3603 3604 1 
318 3871 3872 1 
319 4853 4854 1 
320 4103 4104 1 
321 4111 4112 1 
322 4113 4114 1 
323 4101 4102 1 
324 4871 4872 1 
325 4861 4862 1 
326 5121 5122 1 
327 5093 5094 1 
328 5101 5102 1 
329 5355 5356 1 
330 5353 5354 1 
331 5111 5112 1 
332 5601 5602 1 
333 5851 5852 1 
334 111 112 1 
335 123 124 1 
336 371 372 1 
337 121 122 1 
338 877 878 1 
339 1111 1112 1 
340 621 622 1 
341 1121 1122 1 
342 1371 1372 1 
343 1611 1612 1 
344 1623 1624 1 
345 2373 2374 1 
346 2115 2116 1 
347 2875 2876 1 
348 2863 2864 1 
349 3121 3122 1 
350 3375 3376 1 
351 4371 4372 1 
352 4383 4384 1 
353 5127 5128 1 
354 4865 4866 1 
355 4883 4884 1 
356 5375 5376 1 
357 5371 5372 1 
358 5621 5622 1 
359 5873 5874 1 
360 6131 6132 1 
361 131 132 1 
362 141 142 1 
363 623 624 1 
364 1133 1134 1 
365 1621 1622 1 
366 1631 1632 1 
367 1393 1394 1 
368 1881 1882 1 
369 1625 1626 1 
370 2121 2122 1 
371 2381 2382 1 
372 2631 2632 1 
373 2871 2872 1 
374 3133 3134 1 
375 3381 3382 1 
376 3621 3622 1 
377 3631 3632 1 
378 3633 3634 1 
379 3371 3372 1 
380 3897 3898 1 
381 4121 4122 1 
382 4135 4136 1 
383 4625 4626 1 
384 4881 4882 1 
385 5133 5134 1 
386 5151 5152 1 
387 5871 5872 1 
388 5633 5634 1 
389 5645 5646 1 
390 6121 6122 1 
391 5631 5632 1 
392 6141 6142 1 
393 151 152 1 
394 143 144 1 
395 643 644 1 
396 911 912 1 
397 891 892 1 
398 1401 1402 1 
399 1395 1396 1 
400 1643 1644 1 
401 1641 1642 1 
402 2143 2144 1 
403 2141 2142 1 
404 1901 1902 1 
405 2133 2134 1 
406 2393 2394 1 
407 2151 2152 1 
408 2413 2414 1 
409 2893 2894 1 
410 2881 2882 1 
411 3143 3144 1 
412 3391 3392 1 
413 2903 2904 1 
414 3643 3644 1 
415 3645 3646 1 
416 4133 4134 1 
417 3641 3642 1 
418 3893 3894 1 
419 3891 3892 1 
420 4391 4392 1 
421 4635 4636 1 
422 4641 4642 1 
423 4633 4634 1 
424 4893 4894 1 
425 5141 5142 1 
426 5131 5132 1 
427 5393 5394 1 
428 5143 5144 1 
429 4903 4904 1 
430 5153 5154 1 
431 5381 5382 1 
432 5383 5384 1 
433 5625 5626 1 
434 5891 5892 1 
435 5641 5642 1 
436 5391 5392 1 
437 5635 5636 1 
438 6143 6144 1 
439 6153 6154 1 
440 163 164 1 
441 391 392 1 
442 651 652 1 
443 901 902 1 
444 1151 1152 1 
445 1143 1144 1 
446 1651 1652 1 
447 1411 1412 1 
448 2661 2662 1 
449 2911 2912 1 
450 2901 2902 1 
451 3151 3152 1 
452 3161 3162 1 
453 3651 3652 1 
454 3155 3156 1 
455 3153 3154 1 
456 3901 3902 1 
457 3653 3654 1 
458 4151 4152 1 
459 4673 4674 1 
460 4901 4902 1 
461 5663 5664 1 
462 4911 4912 1 
463 5651 5652 1 
464 6151 6152 1 
465 6161 6162 1 
466 401 402 1 
467 411 412 1 
468 1171 1172 1 
469 1155 1156 1 
470 1675 1676 1 
471 1661 1662 1 
472 1671 1672 1 
473 1423 1424 1 
474 2161 2162 1 
475 2171 2172 1 
476 2173 2174 1 
477 2175 2176 1 
478 2653 2654 1 
479 3401 3402 1 
480 3673 3674 1 
481 3665 3666 1 
482 3661 3662 1 
483 3921 3922 1 
484 4411 4412 1 
485 4413 4414 1 
486 4401 4402 1 
487 4663 4664 1 
488 4415 4416 1 
489 4931 4932 1 
490 4923 4924 1 
491 5171 5172 1 
492 5417 5418 1 
493 5423 5424 1 
494 5403 5404 1 
495 5661 5662 1 
496 5921 5922 1 
497 6163 6164 1 
498 5901 5902 1 
499 5903 5904 1 
500 421 422 1 
501 173 174 1 
502 1173 1174 1 
503 1421 1422 1 
504 1183 1184 1 
505 1911 1912 1 
506 1941 1942 1 
507 1923 1924 1 
508 2671 2672 1 
509 2191 2192 1 
510 2431 2432 1 
511 2691 2692 1 
512 2681 2682 1 
513 2933 2934 1 
514 2673 2674 1 
515 3411 3412 1 
516 3423 3424 1 
517 4163 4164 1 
518 3671 3672 1 
519 3931 3932 1 
520 4161 4162 1 
521 4431 4432 1 
522 5431 5432 1 
523 5683 5684 1 
524 5911 5912 1 
525 5671 5672 1 
526 5681 5682 1 
527 5673 5674 1 
528 5933 5934 1 
529 5935 5936 1 
530 6181 6182 1 
531 6177 6178 1 
532 443 444 1 
533 441 442 1 
534 431 432 1 
535 693 694 1 
536 681 682 1 
537 943 944 1 
538 941 942 1 
539 691 692 1 
540 1181 1182 1 
541 1691 1692 1 
542 1191 1192 1 
543 1441 1442 1 
544 2193 2194 1 
545 2183 2184 1 
546 3171 3172 1 
547 2683 2684 1 
548 2693 2694 1 
549 2925 2926 1 
550 3431 3432 1 
551 2951 2952 1 
552 3421 3422 1 
553 3201 3202 1 
554 3181 3182 1 
555 3691 3692 1 
556 4671 4672 1 
557 4423 4424 1 
558 4681 4682 1 
559 4691 4692 1 
560 4683 4684 1 
561 4943 4944 1 
562 5201 5202 1 
563 5181 5182 1 
564 4941 4942 1 
565 5183 5184 1 
566 5693 5694 1 
567 5677 5678 1 
568 5433 5434 1 
569 5443 5444 1 
570 6183 6184 1 
571 6191 6192 1 
572 5943 5944 1 
573 203 204 1 
574 211 212 1 
575 701 702 1 
576 951 952 1 
577 451 452 1 
578 471 472 1 
579 961 962 1 
580 1443 1444 1 
581 1683 1684 1 
582 1203 1204 1 
583 1693 1694 1 
584 1453 1454 1 
585 1701 1702 1 
586 1943 1944 1 
587 1711 1712 1 
588 2195 2196 1 
589 2201 2202 1 
590 2701 2702 1 
591 2721 2722 1 
592 2953 2954 1 
593 3193 3194 1 
594 2945 2946 1 
595 3441 3442 1 
596 3205 3206 1 
597 3701 3702 1 
598 3711 3712 1 
599 4445 4446 1 
600 4955 4956 1 
601 4953 4954 1 
602 5441 5442 1 
603 5205 5206 1 
604 5953 5954 1 
605 5951 5952 1 
606 221 222 1 
607 971 972 1 
608 213 214 1 
609 963 964 1 
610 453 454 1 
611 1201 1202 1 
612 1225 1226 1 
613 1463 1464 1 
614 1721 1722 1 
615 2713 2714 1 
616 3213 3214 1 
617 3221 3222 1 
618 3471 3472 1 
619 3703 3704 1 
620 3451 3452 1 
621 3973 3974 1 
622 3951 3952 1 
623 4463 4464 1 
624 4203 4204 1 
625 4461 4462 1 
626 4963 4964 1 
627 4451 4452 1 
628 4701 4702 1 
629 4471 4472 1 
630 4961 4962 1 
631 4971 4972 1 
632 5451 5452 1 
633 4965 4966 1 
634 5711 5712 1 
635 5473 5474 1 
636 5721 5722 1 
637 5463 5464 1 
638 5723 5724 1 
639 5461 5462 1 
640 5961 5962 1 
641 5713 5714 1 
642 6211 6212 1 
643 463 464 1 
644 481 482 1 
645 713 714 1 
646 721 722 1 
647 975 976 1 
648 1221 1222 1 
649 1461 1462 1 
650 1233 1234 1 
651 1473 1474 1 
652 1971 1972 1 
653 1475 1476 1 
654 1991 1992 1 
655 2213 2214 1 
656 1961 1962 1 
657 2473 2474 1 
658 2971 2972 1 
659 2471 2472 1 
660 2973 2974 1 
661 3463 3464 1 
662 3223 3224 1 
663 3963 3964 1 
664 3473 3474 1 
665 3971 3972 1 
666 4711 4712 1 
667 4223 4224 1 
668 5213 5214 1 
669 5233 5234 1 
670 6213 6214 1 
671 231 232 1 
672 473 474 1 
673 483 484 1 
674 475 476 1 
675 987 988 1 
676 505 506 1 
677 731 732 1 
678 997 998 1 
679 1231 1232 1 
680 1223 1224 1 
681 1481 1482 1 
682 1731 1732 1 
683 1733 1734 1 
684 1993 1994 1 
685 1983 1984 1 
686 2211 2212 1 
687 2233 2234 1 
688 2245 2246 1 
689 1973 1974 1 
690 2223 2224 1 
691 2491 2492 1 
692 2487 2488 1 
693 2231 2232 1 
694 2991 2992 1 
695 2475 2476 1 
696 3483 3484 1 
697 3481 3482 1 
698 3721 3722 1 
699 3731 3732 1 
700 3981 3982 1 
701 3983 3984 1 
702 4003 4004 1 
703 4481 4482 1 
704 4731 4732 1 
705 4723 4724 1 
706 5221 5222 1 
707 5231 5232 1 
708 5481 5482 1 
709 5491 5492 1 
710 5731 5732 1 
711 5733 5734 1 
712 5471 5472 1 
713 6221 6222 1 
714 5981 5982 1 
715 493 494 1 
716 991 992 1 
717 1003 1004 1 
718 1241 1242 1 
719 751 752 1 
720 1493 1494 1 
721 1001 1002 1 
722 1263 1264 1 
723 1741 1742 1 
724 1503 1504 1 
725 2011 2012 1 
726 1981 1982 1 
727 1743 1744 1 
728 1995 1996 1 
729 2241 2242 1 
730 2003 2004 1 
731 2501 2502 1 
732 2751 2752 1 
733 2731 2732 1 
734 2743 2744 1 
735 2981 2982 1 
736 3001 3002 1 
737 3491 3492 1 
738 3243 3244 1 
739 3741 3742 1 
740 3495 3496 1 
741 3743 3744 1 
742 4491 4492 1 
743 4735 4736 1 
744 4251 4252 1 
745 4501 4502 1 
746 4981 4982 1 
747 4751 4752 1 
748 4741 4742 1 
749 4983 4984 1 
750 4753 4754 1 
751 5255 5256 1 
752 5741 5742 1 
753 5751 5752 1 
754 5501 5502 1 
755 6223 6224 1 
756 5993 5994 1 
757 243 244 1 
758 241 242 1 
759 1 2 1 
760 245 246 1 
761 251 252 1 
762 3 4 1 
763 511 512 1 
764 253 254 1 
765 263 264 1 
766 503 504 1 
767 513 514 1 
768 767 768 1 
769 1011 1012 1 
770 1523 1524 1 
771 1255 1256 1 
772 1005 1006 1 
773 1253 1254 1 
774 1265 1266 1 
775 1505 1506 1 
776 1529 1530 1 
777 1513 1514 1 
778 1515 1516 1 
779 1767 1768 1 
780 2017 2018 1 
781 2495 2496 1 
782 2015 2016 1 
783 2007 2008 1 
784 2269 2270 1 
785 2769 2770 1 
786 2517 2518 1 
787 3005 3006 1 
788 2767 2768 1 
789 2759 2760 1 
790 3267 3268 1 
791 3019 3020 1 
792 3015 3016 1 
793 3519 3520 1 
794 2995 2996 1 
795 3507 3508 1 
796 3503 3504 1 
797 3753 3754 1 
798 3757 3758 1 
799 3749 3750 1 
800 3759 3760 1 
801 3995 3996 1 
802 4263 4264 1 
803 4275 4276 1 
804 4521 4522 1 
805 4499 4500 1 
806 4505 4506 1 
807 5251 5252 1 
808 5017 5018 1 
809 5749 5750 1 
810 5009 5010 1 
811 5517 5518 1 
812 5755 5756 1 
813 5265 5266 1 
814 6003 6004 1 
815 5765 5766 1 
816 6241 6242 1 
817 5757 5758 1 
818 5753 5754 1 
819 6007 6008 1 
820 265 266 1 
821 23 24 1 
822 499 500 1 
823 25 26 1 
824 763 764 1 
825 269 270 1 
826 771 772 1 
827 535 536 1 
828 515 516 1 
829 1023 1024 1 
830 1277 1278 1 
831 1273 1274 1 
832 1281 1282 1 
833 1261 1262 1 
834 1765 1766 1 
835 1775 1776 1 
836 1525 1526 1 
837 1279 1280 1 
838 2257 2258 1 
839 2013 2014 1 
840 2039 2040 1 
841 2025 2026 1 
842 2773 2774 1 
843 3251 3252 1 
844 2511 2512 1 
845 2763 2764 1 
846 2515 2516 1 
847 3011 3012 1 
848 2533 2534 1 
849 2775 2776 1 
850 2789 2790 1 
851 3013 3014 1 
852 3269 3270 1 
853 3513 3514 1 
854 3273 3274 1 
855 3529 3530 1 
856 3263 3264 1 
857 3525 3526 1 
858 3775 3776 1 
859 3773 3774 1 
860 4277 4278 1 
861 3763 3764 1 
862 4013 4014 1 
863 4023 4024 1 
864 4519 4520 1 
865 4267 4268 1 
866 4515 4516 1 
867 4745 4746 1 
868 4771 4772 1 
869 4775 4776 1 
870 4773 4774 1 
871 4777 4778 1 
872 4767 4768 1 
873 5261 5262 1 
874 4765 4766 1 
875 5029 5030 1 
876 5025 5026 1 
877 5521 5522 1 
878 5523 5524 1 
879 5021 5022 1 
880 5763 5764 1 
881 6013 6014 1 
882 5773 5774 1 
883 5529 5530 1 
884 6033 6034 1 
885 6015 6016 1 
886 6023 6024 1 
887 537 538 1 
888 31 32 1 
889 273 274 1 
890 517 518 1 
891 267 268 1 
892 525 526 1 
893 773 774 1 
894 785 786 1 
895 783 784 1 
896 1025 1026 1 
897 1535 1536 1 
898 1027 1028 1 
899 1779 1780 1 
900 1533 1534 1 
901 2027 2028 1 
902 2263 2264 1 
903 3023 3024 1 
904 2777 2778 1 
905 2277 2278 1 
906 2781 2782 1 
907 3025 3026 1 
908 3261 3262 1 
909 3531 3532 1 
910 3031 3032 1 
911 3523 3524 1 
912 3533 3534 1 
913 3521 3522 1 
914 3271 3272 1 
915 3275 3276 1 
916 3511 3512 1 
917 3771 3772 1 
918 3783 3784 1 
919 4021 4022 1 
920 4273 4274 1 
921 4279 4280 1 
922 4535 4536 1 
923 4785 4786 1 
924 4527 4528 1 
925 5285 5286 1 
926 5023 5024 1 
927 5037 5038 1 
928 5271 5272 1 
929 5273 5274 1 
930 5275 5276 1 
931 5283 5284 1 
932 5033 5034 1 
933 5281 5282 1 
934 5525 5526 1 
935 5775 5776 1 
936 5535 5536 1 
937 5783 5784 1 
938 5771 5772 1 
939 5777 5778 1 
940 5779 5780 1 
941 6025 6026 1 
942 6037 6038 1 
943 291 292 1 
944 293 294 1 
945 527 528 1 
946 541 542 1 
947 309 310 1 
948 533 534 1 
949 539 540 1 
950 545 546 1 
951 781 782 1 
952 799 800 1 
953 793 794 1 
954 795 796 1 
955 1285 1286 1 
956 1555 1556 1 
957 1289 1290 1 
958 1543 1544 1 
959 1547 1548 1 
960 1307 1308 1 
961 1795 1796 1 
962 2043 2044 1 
963 2293 2294 1 
964 2535 2536 1 
965 2555 2556 1 
966 2531 2532 1 
967 2047 2048 1 
968 2805 2806 1 
969 3045 3046 1 
970 2297 2298 1 
971 2791 2792 1 
972 2795 2796 1 
973 3049 3050 1 
974 3547 3548 1 
975 3287 3288 1 
976 2787 2788 1 
977 3537 3538 1 
978 3285 3286 1 
979 3305 3306 1 
980 3309 3310 1 
981 4035 4036 1 
982 4041 4042 1 
983 4033 4034 1 
984 4025 4026 1 
985 4045 4046 1 
986 3785 3786 1 
987 4293 4294 1 
988 4793 4794 1 
989 4787 4788 1 
990 4795 4796 1 
991 4781 4782 1 
992 5053 5054 1 
993 5039 5040 1 
994 5293 5294 1 
995 5797 5798 1 
996 5545 5546 1 
997 5549 5550 1 
998 35 36 1 
999 5785 5786 1 
1000 45 46 1 
1001 6045 6046 1 
1002 6027 6028 1 
1003 41 42 1 
1004 6035 6036 1 
1005 301 302 1 
1006 311 312 1 
1007 1051 1052 1 
1008 813 814 1 
1009 807 808 1 
1010 1045 1046 1 
1011 1053 1054 1 
1012 1047 1048 1 
1013 1055 1056 1 
1014 811 812 1 
1015 1303 1304 1 
1016 1823 1824 1 
1017 1797 1798 1 
1018 1311 1312 1 
1019 1801 1802 1 
1020 2053 2054 1 
1021 2059 2060 1 
1022 2317 2318 1 
1023 2067 2068 1 
1024 2541 2542 1 
1025 2307 2308 1 
1026 2793 2794 1 
1027 2557 2558 1 
1028 2803 2804 1 
1029 3055 3056 1 
1030 3047 3048 1 
1031 3295 3296 1 
1032 3303 3304 1 
1033 3555 3556 1 
1034 3553 3554 1 
1035 3793 3794 1 
1036 3805 3806 1 
1037 3795 3796 1 
1038 3803 3804 1 
1039 3809 3810 1 
1040 4299 4300 1 
1041 4309 4310 1 
1042 4291 4292 1 
1043 4303 4304 1 
1044 4557 4558 1 
1045 4801 4802 1 
1046 4543 4544 1 
1047 4791 4792 1 
1048 4817 4818 1 
1049 4805 4806 1 
1050 5303 5304 1 
1051 5057 5058 1 
1052 5295 5296 1 
1053 5043 5044 1 
1054 5313 5314 1 
1055 5309 5310 1 
1056 5311 5312 1 
1057 5547 5548 1 
1058 6065 6066 1 
1059 5565 5566 1 
1060 5809 5810 1 
1061 55 56 1 
1062 6053 6054 1 
1063 65 66 1 
1064 57 58 1 
1065 67 68 1 
1066 565 566 1 
1067 315 316 1 
1068 1067 1068 1 
1069 575 576 1 
1070 573 574 1 
1071 1061 1062 1 
1072 1065 1066 1 
1073 817 818 1 
1074 1313 1314 1 
1075 1813 1814 1 
1076 1561 1562 1 
1077 1333 1334 1 
1078 1565 1566 1 
1079 1577 1578 1 
1080 1809 1810 1 
1081 1803 1804 1 
1082 1825 1826 1 
1083 2303 2304 1 
1084 1827 1828 1 
1085 2305 2306 1 
1086 2313 2314 1 
1087 2063 2064 1 
1088 2563 2564 1 
1089 2065 2066 1 
1090 2577 2578 1 
1091 2815 2816 1 
1092 2807 2808 1 
1093 2559 2560 1 
1094 3053 3054 1 
1095 3075 3076 1 
1096 3327 3328 1 
1097 3063 3064 1 
1098 3575 3576 1 
1099 3307 3308 1 
1100 3317 3318 1 
1101 3563 3564 1 
1102 4063 4064 1 
1103 3573 3574 1 
1104 4075 4076 1 
1105 4053 4054 1 
1106 4317 4318 1 
1107 4305 4306 1 
1108 4311 4312 1 
1109 3823 3824 1 
1110 4077 4078 1 
1111 4553 4554 1 
1112 4313 4314 1 
1113 4315 4316 1 
1114 4561 4562 1 
1115 4073 4074 1 
1116 4555 4556 1 
1117 4575 4576 1 
1118 4565 4566 1 
1119 4331 4332 1 
1120 4563 4564 1 
1121 5065 5066 1 
1122 5061 5062 1 
1123 5323 5324 1 
1124 5573 5574 1 
1125 5557 5558 1 
1126 5563 5564 1 
1127 5807 5808 1 
1128 5795 5796 1 
1129 63 64 1 
1130 6067 6068 1 
1131 75 76 1 
1132 83 84 1 
1133 327 328 1 
1134 331 332 1 
1135 81 82 1 
1136 305 306 1 
1137 571 572 1 
1138 823 824 1 
1139 835 836 1 
1140 1075 1076 1 
1141 1331 1332 1 
1142 833 834 1 
1143 1317 1318 1 
1144 1315 1316 1 
1145 1567 1568 1 
1146 1583 1584 1 
1147 1327 1328 1 
1148 1575 1576 1 
1149 2079 2080 1 
1150 1829 1830 1 
1151 2565 2566 1 
1152 1819 1820 1 
1153 2071 2072 1 
1154 2323 2324 1 
1155 2573 2574 1 
1156 2837 2838 1 
1157 2835 2836 1 
1158 3073 3074 1 
1159 2829 2830 1 
1160 3067 3068 1 
1161 2839 2840 1 
1162 3085 3086 1 
1163 3813 3814 1 
1164 3815 3816 1 
1165 3567 3568 1 
1166 3585 3586 1 
1167 3579 3580 1 
1168 3087 3088 1 
1169 3323 3324 1 
1170 3839 3840 1 
1171 3821 3822 1 
1172 3835 3836 1 
1173 3811 3812 1 
1174 4065 4066 1 
1175 4323 4324 1 
1176 4827 4828 1 
1177 5317 5318 1 
1178 5331 5332 1 
1179 5575 5576 1 
1180 5593 5594 1 
1181 5325 5326 1 
1182 5825 5826 1 
1183 5815 5816 1 
1184 6073 6074 1 
1185 6087 6088 1 
1186 5817 5818 1 
1187 6075 6076 1 
1188 6071 6072 1 
1189 6093 6094 1 
1190 339 340 1 
1191 325 326 1 
1192 91 92 1 
1193 6097 6098 1 
1194 335 336 1 
1195 337 338 1 
1196 585 586 1 
1197 843 844 1 
1198 583 584 1 
1199 597 598 1 
1200 845 846 1 
1201 587 588 1 
1202 1337 1338 1 
1203 1335 1336 1 
1204 829 830 1 
1205 1325 1326 1 
1206 1081 1082 1 
1207 1093 1094 1 
1208 1087 1088 1 
1209 1845 1846 1 
1210 2593 2594 1 
1211 2093 2094 1 
1212 2337 2338 1 
1213 2097 2098 1 
1214 2089 2090 1 
1215 2349 2350 1 
1216 2591 2592 1 
1217 2831 2832 1 
1218 2081 2082 1 
1219 2335 2336 1 
1220 3081 3082 1 
1221 2585 2586 1 
1222 3079 3080 1 
1223 2841 2842 1 
1224 2827 2828 1 
1225 2843 2844 1 
1226 3339 3340 1 
1227 3095 3096 1 
1228 3337 3338 1 
1229 3825 3826 1 
1230 3831 3832 1 
1231 3345 3346 1 
1232 3597 3598 1 
1233 3847 3848 1 
1234 3591 3592 1 
1235 4343 4344 1 
1236 4347 4348 1 
1237 4835 4836 1 
1238 4335 4336 1 
1239 4339 4340 1 
1240 5081 5082 1 
1241 4593 4594 1 
1242 5083 5084 1 
1243 5349 5350 1 
1244 5089 5090 1 
1245 5095 5096 1 
1246 5333 5334 1 
1247 5335 5336 1 
1248 5583 5584 1 
1249 5585 5586 1 
1250 5589 5590 1 
1251 343 344 1 
1252 105 106 1 
1253 6089 6090 1 
1254 6101 6102 1 
1255 6105 6106 1 
1256 353 354 1 
1257 6091 6092 1 
1258 95 96 1 
1259 97 98 1 
1260 593 594 1 
1261 363 364 1 
1262 851 852 1 
1263 855 856 1 
1264 865 866 1 
1265 1107 1108 1 
1266 599 600 1 
1267 1349 1350 1 
1268 853 854 1 
1269 847 848 1 
1270 1347 1348 1 
1271 1099 1100 1 
1272 1593 1594 1 
1273 1603 1604 1 
1274 1841 1842 1 
1275 1343 1344 1 
1276 1857 1858 1 
1277 1835 1836 1 
1278 1859 1860 1 
1279 2105 2106 1 
1280 1869 1870 1 
1281 1833 1834 1 
1282 2107 2108 1 
1283 2339 2340 1 
1284 2845 2846 1 
1285 2849 2850 1 
1286 2851 2852 1 
1287 3103 3104 1 
1288 2601 2602 1 
1289 2595 2596 1 
1290 3109 3110 1 
1291 3355 3356 1 
1292 3083 3084 1 
1293 3335 3336 1 
1294 3101 3102 1 
1295 3329 3330 1 
1296 3341 3342 1 
1297 3607 3608 1 
1298 3843 3844 1 
1299 3855 3856 1 
1300 3583 3584 1 
1301 3849 3850 1 
1302 4351 4352 1 
1303 4095 4096 1 
1304 4107 4108 1 
1305 4603 4604 1 
1306 4365 4366 1 
1307 4355 4356 1 
1308 4345 4346 1 
1309 4087 4088 1 
1310 4601 4602 1 
1311 4595 4596 1 
1312 4585 4586 1 
1313 5103 5104 1 
1314 4845 4846 1 
1315 4837 4838 1 
1316 4875 4876 1 
1317 5341 5342 1 
1318 5343 5344 1 
1319 5613 5614 1 
1320 5597 5598 1 
1321 5347 5348 1 
1322 5845 5846 1 
1323 5831 5832 1 
1324 6103 6104 1 
1325 5605 5606 1 
1326 5863 5864 1 
1327 5603 5604 1 
1328 103 104 1 
1329 107 108 1 
1330 365 366 1 
1331 125 126 1 
1332 115 116 1 
1333 367 368 1 
1334 603 604 1 
1335 863 864 1 
1336 605 606 1 
1337 1101 1102 1 
1338 1105 1106 1 
1339 869 870 1 
1340 879 880 1 
1341 1115 1116 1 
1342 1103 1104 1 
1343 1609 1610 1 
1344 1367 1368 1 
1345 1861 1862 1 
1346 1855 1856 1 
1347 1853 1854 1 
1348 1851 1852 1 
1349 2103 2104 1 
1350 2359 2360 1 
1351 2613 2614 1 
1352 2365 2366 1 
1353 2605 2606 1 
1354 2855 2856 1 
1355 3111 3112 1 
1356 2853 2854 1 
1357 2625 2626 1 
1358 3115 3116 1 
1359 3105 3106 1 
1360 3353 3354 1 
1361 3613 3614 1 
1362 3615 3616 1 
1363 3365 3366 1 
1364 3611 3612 1 
1365 3623 3624 1 
1366 3599 3600 1 
1367 3861 3862 1 
1368 4105 4106 1 
1369 4117 4118 1 
1370 3869 3870 1 
1371 3845 3846 1 
1372 4361 4362 1 
1373 4353 4354 1 
1374 4369 4370 1 
1375 4613 4614 1 
1376 4123 4124 1 
1377 4851 4852 1 
1378 4843 4844 1 
1379 4841 4842 1 
1380 4367 4368 1 
1381 4859 4860 1 
1382 4867 4868 1 
1383 5115 5116 1 
1384 5365 5366 1 
1385 5359 5360 1 
1386 5843 5844 1 
1387 5615 5616 1 
1388 5619 5620 1 
1389 5853 5854 1 
1390 5857 5858 1 
1391 5865 5866 1 
1392 5617 5618 1 
1393 351 352 1 
1394 6117 6118 1 
1395 361 362 1 
1396 6115 6116 1 
1397 5875 5876 1 
1398 611 612 1 
1399 357 358 1 
1400 369 370 1 
1401 1123 1124 1 
1402 875 876 1 
1403 871 872 1 
1404 615 616 1 
1405 1113 1114 1 
1406 881 882 1 
1407 873 874 1 
1408 1373 1374 1 
1409 1127 1128 1 
1410 1613 1614 1 
1411 1637 1638 1 
1412 1365 1366 1 
1413 1363 1364 1 
1414 1615 1616 1 
1415 1865 1866 1 
1416 1875 1876 1 
1417 2363 2364 1 
1418 2375 2376 1 
1419 2117 2118 1 
1420 2127 2128 1 
1421 2101 2102 1 
1422 2371 2372 1 
1423 2619 2620 1 
1424 2603 2604 1 
1425 2873 2874 1 
1426 2857 2858 1 
1427 3373 3374 1 
1428 2869 2870 1 
1429 3117 3118 1 
1430 2867 2868 1 
1431 2627 2628 1 
1432 3135 3136 1 
1433 3131 3132 1 
1434 3363 3364 1 
1435 3383 3384 1 
1436 3617 3618 1 
1437 3369 3370 1 
1438 3379 3380 1 
1439 3865 3866 1 
1440 3883 3884 1 
1441 3875 3876 1 
1442 4125 4126 1 
1443 4363 4364 1 
1444 4115 4116 1 
1445 4395 4396 1 
1446 4621 4622 1 
1447 4373 4374 1 
1448 4637 4638 1 
1449 4623 4624 1 
1450 4615 4616 1 
1451 4885 4886 1 
1452 5113 5114 1 
1453 5137 5138 1 
1454 5363 5364 1 
1455 5361 5362 1 
1456 5119 5120 1 
1457 5637 5638 1 
1458 5377 5378 1 
1459 5623 5624 1 
1460 5879 5880 1 
1461 6119 6120 1 
1462 6111 6112 1 
1463 5881 5882 1 
1464 6125 6126 1 
1465 6123 6124 1 
1466 6113 6114 1 
1467 135 136 1 
1468 373 374 1 
1469 381 382 1 
1470 627 628 1 
1471 635 636 1 
1472 641 642 1 
1473 653 654 1 
1474 633 634 1 
1475 883 884 1 
1476 861 862 1 
1477 895 896 1 
1478 887 888 1 
1479 1397 1398 1 
1480 1391 1392 1 
1481 1385 1386 1 
1482 1377 1378 1 
1483 1871 1872 1 
1484 2113 2114 1 
1485 2131 2132 1 
1486 1877 1878 1 
1487 2123 2124 1 
1488 2149 2150 1 
1489 2383 2384 1 
1490 2361 2362 1 
1491 2377 2378 1 
1492 2633 2634 1 
1493 2883 2884 1 
1494 2635 2636 1 
1495 2887 2888 1 
1496 3123 3124 1 
1497 3113 3114 1 
1498 3385 3386 1 
1499 3377 3378 1 
1500 3389 3390 1 
1501 3879 3880 1 
1502 3873 3874 1 
1503 4131 4132 1 
1504 4143 4144 1 
1505 3889 3890 1 
1506 3881 3882 1 
1507 4381 4382 1 
1508 4119 4120 1 
1509 4385 4386 1 
1510 4393 4394 1 
1511 4887 4888 1 
1512 4629 4630 1 
1513 4873 4874 1 
1514 4877 4878 1 
1515 4897 4898 1 
1516 5379 5380 1 
1517 5861 5862 1 
1518 5643 5644 1 
1519 5877 5878 1 
1520 5883 5884 1 
1521 129 130 1 
1522 377 378 1 
1523 6133 6134 1 
1524 383 384 1 
1525 395 396 1 
1526 385 386 1 
1527 397 398 1 
1528 893 894 1 
1529 631 632 1 
1530 645 646 1 
1531 1125 1126 1 
1532 1135 1136 1 
1533 1131 1132 1 
1534 1407 1408 1 
1535 1897 1898 1 
1536 1409 1410 1 
1537 1381 1382 1 
1538 1883 1884 1 
1539 1633 1634 1 
1540 1645 1646 1 
1541 1657 1658 1 
1542 1913 1914 1 
1543 1891 1892 1 
1544 2125 2126 1 
1545 2145 2146 1 
1546 2147 2148 1 
1547 2385 2386 1 
1548 2155 2156 1 
1549 2651 2652 1 
1550 2391 2392 1 
1551 2405 2406 1 
1552 2135 2136 1 
1553 2641 2642 1 
1554 2891 2892 1 
1555 3141 3142 1 
1556 2645 2646 1 
1557 2905 2906 1 
1558 3393 3394 1 
1559 3149 3150 1 
1560 3885 3886 1 
1561 4141 4142 1 
1562 4631 4632 1 
1563 4137 4138 1 
1564 4387 4388 1 
1565 4651 4652 1 
1566 4643 4644 1 
1567 4895 4896 1 
1568 4891 4892 1 
1569 5147 5148 1 
1570 5373 5374 1 
1571 5647 5648 1 
1572 5395 5396 1 
1573 5655 5656 1 
1574 5649 5650 1 
1575 157 158 1 
1576 6147 6148 1 
1577 165 166 1 
1578 403 404 1 
1579 659 660 1 
1580 413 414 1 
1581 907 908 1 
1582 905 906 1 
1583 405 406 1 
1584 1383 1384 1 
1585 903 904 1 
1586 657 658 1 
1587 1157 1158 1 
1588 1169 1170 1 
1589 1153 1154 1 
1590 1141 1142 1 
1591 1403 1404 1 
1592 1653 1654 1 
1593 1419 1420 1 
1594 1649 1650 1 
1595 1655 1656 1 
1596 2169 2170 1 
1597 1895 1896 1 
1598 1669 1670 1 
1599 1903 1904 1 
1600 2165 2166 1 
1601 2153 2154 1 
1602 2659 2660 1 
1603 1893 1894 1 
1604 2655 2656 1 
1605 2409 2410 1 
1606 2665 2666 1 
1607 2907 2908 1 
1608 2407 2408 1 
1609 2419 2420 1 
1610 2895 2896 1 
1611 3399 3400 1 
1612 3899 3900 1 
1613 3663 3664 1 
1614 3657 3658 1 
1615 3677 3678 1 
1616 4145 4146 1 
1617 3903 3904 1 
1618 3895 3896 1 
1619 4403 4404 1 
1620 4409 4410 1 
1621 4155 4156 1 
1622 4167 4168 1 
1623 4147 4148 1 
1624 4405 4406 1 
1625 4669 4670 1 
1626 4653 4654 1 
1627 4655 4656 1 
1628 5401 5402 1 
1629 5163 5164 1 
1630 4907 4908 1 
1631 5161 5162 1 
1632 5155 5156 1 
1633 5653 5654 1 
1634 5145 5146 1 
1635 5409 5410 1 
1636 5405 5406 1 
1637 5387 5388 1 
1638 5667 5668 1 
1639 5907 5908 1 
1640 5893 5894 1 
1641 5885 5886 1 
1642 6155 6156 1 
1643 161 162 1 
1644 407 408 1 
1645 665 666 1 
1646 415 416 1 
1647 423 424 1 
1648 155 156 1 
1649 655 656 1 
1650 667 668 1 
1651 913 914 1 
1652 1161 1162 1 
1653 663 664 1 
1654 915 916 1 
1655 1425 1426 1 
1656 1163 1164 1 
1657 1405 1406 1 
1658 1413 1414 1 
1659 1165 1166 1 
1660 1427 1428 1 
1661 1175 1176 1 
1662 1665 1666 1 
1663 2411 2412 1 
1664 1917 1918 1 
1665 2163 2164 1 
1666 1921 1922 1 
1667 2177 2178 1 
1668 2401 2402 1 
1669 2403 2404 1 
1670 2417 2418 1 
1671 2415 2416 1 
1672 2669 2670 1 
1673 2667 2668 1 
1674 2913 2914 1 
1675 2915 2916 1 
1676 2919 2920 1 
1677 2921 2922 1 
1678 3415 3416 1 
1679 3173 3174 1 
1680 3163 3164 1 
1681 3435 3436 1 
1682 3681 3682 1 
1683 3157 3158 1 
1684 3165 3166 1 
1685 3403 3404 1 
1686 3413 3414 1 
1687 3675 3676 1 
1688 3911 3912 1 
1689 3923 3924 1 
1690 4165 4166 1 
1691 4153 4154 1 
1692 3915 3916 1 
1693 4667 4668 1 
1694 4913 4914 1 
1695 4647 4648 1 
1696 4661 4662 1 
1697 4921 4922 1 
1698 4915 4916 1 
1699 5167 5168 1 
1700 5175 5176 1 
1701 5149 5150 1 
1702 5407 5408 1 
1703 5413 5414 1 
1704 5411 5412 1 
1705 5415 5416 1 
1706 5159 5160 1 
1707 5169 5170 1 
1708 5909 5910 1 
1709 5915 5916 1 
1710 175 176 1 
1711 6175 6176 1 
1712 433 434 1 
1713 6187 6188 1 
1714 181 182 1 
1715 429 430 1 
1716 671 672 1 
1717 185 186 1 
1718 177 178 1 
1719 435 436 1 
1720 673 674 1 
1721 687 688 1 
1722 933 934 1 
1723 925 926 1 
1724 931 932 1 
1725 921 922 1 
1726 1185 1186 1 
1727 1431 1432 1 
1728 1433 1434 1 
1729 1445 1446 1 
1730 1681 1682 1 
1731 1663 1664 1 
1732 1673 1674 1 
1733 1447 1448 1 
1734 1685 1686 1 
1735 1931 1932 1 
1736 1187 1188 1 
1737 2181 2182 1 
1738 1915 1916 1 
1739 2421 2422 1 
1740 2185 2186 1 
1741 2433 2434 1 
1742 1927 1928 1 
1743 2425 2426 1 
1744 2437 2438 1 
1745 2423 2424 1 
1746 2435 2436 1 
1747 2663 2664 1 
1748 2931 2932 1 