ITEM: TIMESTEP
69960
ITEM: NUMBER OF ENTRIES
7929
ITEM: BOX BOUNDS pp pp ff
0.0000000000000000e+00 7.2168784000000002e+01
0.0000000000000000e+00 7.2168784000000002e+01
0.0000000000000000e+00 1.2000000000000000e+01
ITEM: ENTRIES index c_1[1] c_1[2] c_1[3]
1 1006 6224 3 
2 1006 1005 1 
3 1006 6008 3 
4 250 6008 3 
5 250 249 1 
6 250 1006 3 
7 6008 6224 3 
8 6008 6007 1 
9 6224 250 3 
10 6224 6223 1 
11 244 243 1 
12 6002 244 3 
13 12 34 3 
14 12 11 1 
15 12 6022 3 
16 525 526 1 
17 473 525 2 
18 34 248 3 
19 34 33 1 
20 34 6022 3 
21 748 747 1 
22 6052 748 3 
23 1240 6 3 
24 6 5 1 
25 6051 6052 1 
26 11 6051 2 
27 1239 1240 1 
28 485 1239 2 
29 1737 1738 1 
30 233 269 2 
31 1020 536 3 
32 1020 1019 1 
33 536 1002 3 
34 536 535 1 
35 536 1758 3 
36 1002 1020 3 
37 1002 1001 1 
38 1002 1758 3 
39 1758 1020 3 
40 1758 1757 1 
41 1747 1757 2 
42 1752 1751 1 
43 2742 1752 3 
44 3010 3986 3 
45 3010 3009 1 
46 3986 3510 3 
47 3986 3985 1 
48 3510 3010 3 
49 3510 3509 1 
50 2777 3787 2 
51 4257 4258 1 
52 3985 4257 2 
53 4024 4023 1 
54 3511 3512 1 
55 4245 4529 2 
56 5238 6246 3 
57 5238 5237 1 
58 4488 5238 3 
59 4488 4487 1 
60 6246 4488 3 
61 6246 6245 1 
62 24 474 3 
63 24 23 1 
64 24 6018 3 
65 24 6014 3 
66 474 6014 3 
67 474 473 1 
68 6018 474 3 
69 6018 6017 1 
70 6014 6018 3 
71 6014 6013 1 
72 5796 5795 1 
73 240 5796 3 
74 5516 6016 3 
75 5516 5515 1 
76 6001 6002 1 
77 6001 6009 2 
78 5784 6038 3 
79 520 30 3 
80 520 519 1 
81 520 5516 3 
82 6016 520 3 
83 6016 6015 1 
84 248 12 3 
85 248 247 1 
86 30 6016 3 
87 30 29 1 
88 30 5516 3 
89 6022 248 3 
90 6022 6021 1 
91 768 1022 3 
92 502 1022 3 
93 502 516 3 
94 270 522 3 
95 270 768 3 
96 270 526 3 
97 284 283 1 
98 284 502 3 
99 526 522 3 
100 526 1022 3 
101 522 521 1 
102 522 768 3 
103 516 284 3 
104 48 516 3 
105 535 1021 2 
106 2011 2741 2 
107 2741 2742 1 
108 2764 2298 3 
109 2764 2763 1 
110 1504 2252 3 
111 1504 1503 1 
112 2511 2512 1 
113 2511 2767 2 
114 2518 3262 3 
115 2518 2517 1 
116 2518 3788 3 
117 2262 3262 3 
118 2262 2261 1 
119 2262 2518 3 
120 3262 3788 3 
121 3262 3261 1 
122 3788 2262 3 
123 3788 3787 1 
124 3770 3769 1 
125 4012 3770 3 
126 4271 4743 2 
127 4526 4788 3 
128 4526 4525 1 
129 4246 4526 3 
130 4246 4245 1 
131 4246 4274 3 
132 4788 4246 3 
133 4788 4787 1 
134 4274 4788 3 
135 4274 4273 1 
136 4274 4526 3 
137 4243 4495 2 
138 5264 5534 3 
139 5264 5263 1 
140 15 499 2 
141 29 251 2 
142 239 240 1 
143 239 5539 2 
144 17 18 1 
145 6038 6037 1 
146 6011 6021 2 
147 546 792 3 
148 546 545 1 
149 546 1068 3 
150 2961 2962 1 
151 2962 3256 3 
152 2271 2763 2 
153 3256 3255 1 
154 2272 2271 1 
155 2037 2527 2 
156 3263 3535 2 
157 4036 4035 1 
158 3031 3309 2 
159 3309 3310 1 
160 4026 3746 3 
161 4026 4036 3 
162 3746 3745 1 
163 3746 4036 3 
164 4518 4772 3 
165 4518 4517 1 
166 4772 5024 3 
167 4772 4771 1 
168 5024 4518 3 
169 5024 5023 1 
170 4525 4789 2 
171 4790 4789 1 
172 4316 4790 3 
173 5001 5263 2 
174 5788 5787 1 
175 18 5788 3 
176 5540 542 3 
177 5540 5539 1 
178 5540 5780 3 
179 6030 5540 3 
180 6030 6029 1 
181 20 1330 3 
182 1330 1329 1 
183 1536 1268 3 
184 1536 1535 1 
185 1268 1760 3 
186 1268 1267 1 
187 1760 1536 3 
188 1760 1759 1 
189 1278 1268 3 
190 1278 1277 1 
191 1278 1760 3 
192 1278 1536 3 
193 1267 1549 2 
194 289 1759 2 
195 290 2290 3 
196 290 289 1 
197 794 290 3 
198 794 793 1 
199 2290 794 3 
200 2290 2289 1 
201 1828 2328 3 
202 1828 1827 1 
203 2546 2272 3 
204 2552 3784 3 
205 2545 2546 1 
206 1321 2545 2 
207 3784 3783 1 
208 2038 2037 1 
209 3046 2038 3 
210 4034 4033 1 
211 4044 4034 3 
212 3312 3311 1 
213 3312 3804 3 
214 4052 4051 1 
215 4052 3312 3 
216 3804 4052 3 
217 4043 4044 1 
218 3558 4066 3 
219 3558 3557 1 
220 3558 3574 3 
221 3574 4066 3 
222 3574 3573 1 
223 3306 3558 3 
224 3306 3305 1 
225 3306 3574 3 
226 4066 3306 3 
227 4066 4065 1 
228 3785 3786 1 
229 3785 4043 2 
230 4554 4553 1 
231 4315 4316 1 
232 4802 4554 3 
233 4767 4783 2 
234 5988 5987 1 
235 5034 5988 3 
236 75 6093 2 
237 1532 1570 3 
238 1532 1531 1 
239 1532 2542 3 
240 1570 1554 3 
241 1570 1569 1 
242 1570 2542 3 
243 1554 1532 3 
244 1554 1553 1 
245 1333 2307 2 
246 1823 2289 2 
247 1539 1791 2 
248 1301 1569 2 
249 1334 2054 3 
250 1334 1333 1 
251 2054 2332 3 
252 2054 2053 1 
253 1322 2574 3 
254 1322 1321 1 
255 1322 2328 3 
256 1322 1828 3 
257 2328 2574 3 
258 2328 2327 1 
259 1571 1781 2 
260 2574 1828 3 
261 2574 2573 1 
262 3305 3581 2 
263 4801 4802 1 
264 4567 5331 2 
265 4567 4568 1 
266 4511 5329 2 
267 4768 4767 1 
268 4568 4768 3 
269 5044 5814 3 
270 5044 5043 1 
271 5814 5302 3 
272 5814 5813 1 
273 5302 5044 3 
274 5302 5301 1 
275 5544 5318 3 
276 5318 5317 1 
277 5820 5552 3 
278 5820 5819 1 
279 5542 5820 3 
280 5542 5541 1 
281 5552 5542 3 
282 5552 5551 1 
283 5805 6043 2 
284 76 562 3 
285 76 75 1 
286 6055 6056 1 
287 59 6055 2 
288 1551 1552 1 
289 1314 1313 1 
290 2304 1314 3 
291 1540 1572 3 
292 1540 1539 1 
293 2599 2600 1 
294 1795 2053 2 
295 1064 1572 3 
296 1064 1063 1 
297 1064 1540 3 
298 1064 1302 3 
299 1302 1540 3 
300 1302 1301 1 
301 1572 1302 3 
302 1572 1571 1 
303 2291 2353 2 
304 1799 2069 2 
305 2353 2354 1 
306 3074 3086 3 
307 3074 3073 1 
308 2036 2035 1 
309 2793 2811 2 
310 2593 3565 2 
311 2810 2036 3 
312 2035 3587 2 
313 2821 3317 2 
314 3583 3599 2 
315 4291 4587 2 
316 3331 3567 2 
317 4815 4816 1 
318 3568 4058 3 
319 3568 3567 1 
320 3568 4300 3 
321 4058 4292 3 
322 4058 4057 1 
323 4292 3568 3 
324 4292 4291 1 
325 4292 4300 3 
326 4816 4310 3 
327 4310 4309 1 
328 4300 4058 3 
329 4300 4299 1 
330 5043 5317 2 
331 5563 5811 2 
332 5315 5316 1 
333 5816 74 3 
334 5816 5815 1 
335 6084 5816 3 
336 6084 6083 1 
337 5819 6083 2 
338 5559 6053 2 
339 562 300 3 
340 562 561 1 
341 300 76 3 
342 300 299 1 
343 300 324 3 
344 5806 6054 3 
345 5806 5805 1 
346 5806 5826 3 
347 5826 6054 3 
348 5826 5825 1 
349 6054 354 3 
350 6054 6053 1 
351 354 5806 3 
352 354 353 1 
353 354 5826 3 
354 324 76 3 
355 324 323 1 
356 324 562 3 
357 5560 5808 3 
358 5560 5559 1 
359 5560 5794 3 
360 5794 5568 3 
361 5794 5793 1 
362 5794 5808 3 
363 5808 5568 3 
364 5808 5807 1 
365 83 307 2 
366 1076 68 3 
367 1076 1075 1 
368 610 1076 3 
369 610 609 1 
370 610 826 3 
371 68 826 3 
372 68 67 1 
373 68 610 3 
374 826 1076 3 
375 826 825 1 
376 1092 1814 3 
377 1092 1091 1 
378 1092 1102 3 
379 1814 596 3 
380 1814 1813 1 
381 596 1092 3 
382 596 595 1 
383 1102 596 3 
384 1102 1101 1 
385 1102 1814 3 
386 1091 1103 2 
387 1560 1078 3 
388 1560 1559 1 
389 1078 844 3 
390 1078 1077 1 
391 844 1560 3 
392 844 843 1 
393 828 1832 3 
394 828 827 1 
395 1074 828 3 
396 1074 1073 1 
397 1832 1074 3 
398 1832 1831 1 
399 2581 2582 1 
400 2354 2582 3 
401 2354 3038 3 
402 1790 2058 3 
403 1790 1789 1 
404 1790 2354 3 
405 2306 1790 3 
406 2306 2305 1 
407 2306 3352 3 
408 2058 2306 3 
409 2058 2057 1 
410 2058 3352 3 
411 2046 2312 3 
412 2046 2582 3 
413 3038 3037 1 
414 2582 2824 3 
415 2823 2824 1 
416 2072 2071 1 
417 2338 2072 3 
418 3073 2843 2 
419 2330 2594 3 
420 2330 2329 1 
421 3056 2330 3 
422 3056 3055 1 
423 2809 2810 1 
424 2594 3056 3 
425 2594 2593 1 
426 3596 3584 3 
427 3584 3583 1 
428 3060 3328 3 
429 3060 3059 1 
430 3328 2570 3 
431 3328 3327 1 
432 3848 3830 3 
433 3848 3847 1 
434 3830 3324 3 
435 3830 3829 1 
436 3324 3848 3 
437 3324 3323 1 
438 3822 4572 3 
439 3822 3821 1 
440 3822 4610 3 
441 4572 3850 3 
442 4572 4571 1 
443 3850 3822 3 
444 3850 3849 1 
445 3850 4610 3 
446 3835 4057 2 
447 4853 4854 1 
448 5596 5812 3 
449 5596 5595 1 
450 5812 5786 3 
451 5812 5811 1 
452 5786 5596 3 
453 5786 5785 1 
454 5082 5786 3 
455 5082 5081 1 
456 5082 5596 3 
457 5082 5812 3 
458 5090 5052 3 
459 5052 5051 1 
460 544 5564 3 
461 544 543 1 
462 5822 5838 3 
463 5838 5837 1 
464 6027 6028 1 
465 6027 6079 2 
466 6095 6096 1 
467 81 82 1 
468 81 563 2 
469 90 116 3 
470 564 563 1 
471 564 840 3 
472 82 564 3 
473 82 840 3 
474 840 839 1 
475 571 1559 2 
476 1084 842 3 
477 1084 1083 1 
478 1341 1342 1 
479 1341 1831 2 
480 842 1582 3 
481 842 841 1 
482 848 1368 3 
483 848 1586 3 
484 1586 1585 1 
485 841 843 2 
486 1083 1563 2 
487 1582 1084 3 
488 1582 1581 1 
489 1574 1586 3 
490 1574 1860 3 
491 1069 1327 2 
492 2319 2320 1 
493 817 2319 2 
494 1335 1336 1 
495 1335 1809 2 
496 2074 1810 3 
497 2074 2073 1 
498 1810 2090 3 
499 1810 1809 1 
500 1812 1810 3 
501 1812 1811 1 
502 1812 2074 3 
503 1812 2090 3 
504 2090 2074 3 
505 2090 2089 1 
506 2312 2311 1 
507 2824 3038 3 
508 3351 3352 1 
509 1811 2623 2 
510 2082 2081 1 
511 2045 2046 1 
512 2045 3043 2 
513 3037 3095 2 
514 2816 2082 3 
515 3044 2828 3 
516 3044 3043 1 
517 3096 2592 3 
518 3096 3095 1 
519 2858 3096 3 
520 2858 2857 1 
521 2578 2858 3 
522 2578 2577 1 
523 2578 2592 3 
524 2578 3096 3 
525 2845 2863 2 
526 3595 3596 1 
527 3595 4107 2 
528 3847 3829 2 
529 4330 4329 1 
530 4068 4330 3 
531 4610 4572 3 
532 4610 4609 1 
533 4117 4118 1 
534 4117 4341 2 
535 4355 4603 2 
536 5346 4340 3 
537 5346 5345 1 
538 4604 5346 3 
539 4604 4603 1 
540 4340 4604 3 
541 4340 4339 1 
542 4087 4093 2 
543 5051 5573 2 
544 5089 5090 1 
545 5821 5822 1 
546 115 857 2 
547 116 115 1 
548 1573 1574 1 
549 1368 1596 3 
550 1336 1860 3 
551 1336 1596 3 
552 1336 1342 3 
553 1596 1595 1 
554 1342 1596 3 
555 1342 1860 3 
556 1098 2120 3 
557 1098 1097 1 
558 2120 818 3 
559 2120 2119 1 
560 818 1098 3 
561 818 817 1 
562 2320 1600 3 
563 2320 2368 3 
564 1600 1599 1 
565 1600 2064 3 
566 1600 2368 3 
567 2064 2368 3 
568 2064 2120 3 
569 2081 2089 2 
570 2815 2816 1 
571 1819 2577 2 
572 2894 2342 3 
573 2894 2893 1 
574 2364 2864 3 
575 2364 2363 1 
576 2364 2894 3 
577 2864 2894 3 
578 2864 2863 1 
579 2342 2864 3 
580 2342 2341 1 
581 2342 2364 3 
582 2358 2870 3 
583 2870 2869 1 
584 3606 3864 3 
585 3606 3605 1 
586 3864 3092 3 
587 3864 3863 1 
588 3092 3606 3 
589 3092 3091 1 
590 3593 3863 2 
591 4570 4842 3 
592 4570 4569 1 
593 4570 4590 3 
594 4570 4608 3 
595 4590 4842 3 
596 4590 4589 1 
597 2841 3333 2 
598 4608 4590 3 
599 4608 4607 1 
600 4842 4608 3 
601 4842 4841 1 
602 4105 4609 2 
603 4342 4122 3 
604 4342 4822 3 
605 4342 4341 1 
606 4106 2842 3 
607 4106 4105 1 
608 4106 4350 3 
609 2842 4350 3 
610 2842 2841 1 
611 4350 3088 3 
612 4350 4349 1 
613 5586 5118 3 
614 5586 5585 1 
615 5574 5094 3 
616 5574 5573 1 
617 5116 5872 3 
618 5116 5115 1 
619 4595 5093 2 
620 5638 586 3 
621 5638 5637 1 
622 6125 6126 1 
623 1601 1602 1 
624 1870 1852 3 
625 1870 1869 1 
626 1852 1394 3 
627 1852 1851 1 
628 1394 1870 3 
629 1394 1393 1 
630 1589 1849 2 
631 1849 1850 1 
632 2128 2136 3 
633 2128 2127 1 
634 1617 2855 2 
635 1351 2127 2 
636 2825 3339 2 
637 4363 4364 1 
638 3873 4363 2 
639 3111 3591 2 
640 3591 3592 1 
641 4346 4342 3 
642 4346 4345 1 
643 4822 4346 3 
644 4822 4821 1 
645 4121 4607 2 
646 4122 4822 3 
647 4122 4346 3 
648 4122 4121 1 
649 3088 2842 3 
650 3088 3087 1 
651 3088 4106 3 
652 3875 3876 1 
653 3875 4589 2 
654 4332 4100 3 
655 4332 4331 1 
656 4856 4332 3 
657 4856 4855 1 
658 4100 4856 3 
659 4100 4099 1 
660 4324 4100 3 
661 4324 4323 1 
662 4324 4332 3 
663 4324 4856 3 
664 4621 4627 2 
665 4596 4595 1 
666 4600 4596 3 
667 1080 852 3 
668 852 851 1 
669 5371 6119 2 
670 5597 5598 1 
671 5597 5637 2 
672 1079 1080 1 
673 1079 1355 2 
674 5598 5858 3 
675 1610 140 3 
676 2376 1862 3 
677 2376 2375 1 
678 1590 2376 3 
679 1590 1589 1 
680 1862 1590 3 
681 1862 1861 1 
682 2116 2115 1 
683 3134 2372 3 
684 3134 3133 1 
685 2372 1132 3 
686 2372 2371 1 
687 1132 3134 3 
688 1132 1131 1 
689 2856 1858 3 
690 2856 2855 1 
691 2856 3340 3 
692 1858 1857 1 
693 1858 3340 3 
694 1858 2616 3 
695 1868 2116 3 
696 3340 2616 3 
697 3340 3339 1 
698 2616 2856 3 
699 2616 2615 1 
700 1847 1848 1 
701 1847 2615 2 
702 3099 3100 1 
703 3372 3910 3 
704 3910 3909 1 
705 4146 3144 3 
706 4146 4145 1 
707 3376 4146 3 
708 3376 3375 1 
709 3144 3376 3 
710 3144 3143 1 
711 3624 3623 1 
712 2335 3123 2 
713 2336 3884 3 
714 2336 2335 1 
715 2336 3874 3 
716 3124 2336 3 
717 3124 3123 1 
718 3124 3874 3 
719 3874 3884 3 
720 3874 3873 1 
721 2877 3897 2 
722 3371 3372 1 
723 3884 3124 3 
724 3884 3883 1 
725 3626 4370 3 
726 3626 4870 3 
727 3626 4104 3 
728 4104 4870 3 
729 4104 4103 1 
730 3625 3626 1 
731 3625 3851 2 
732 4870 4370 3 
733 4870 4869 1 
734 4370 4104 3 
735 4370 4369 1 
736 4383 4889 2 
737 4362 4384 3 
738 4384 4383 1 
739 5138 5612 3 
740 5854 5832 3 
741 5832 5831 1 
742 113 341 2 
743 6120 5842 3 
744 342 102 3 
745 342 341 1 
746 342 878 3 
747 5842 5841 1 
748 6086 342 3 
749 6086 6085 1 
750 878 6086 3 
751 878 877 1 
752 1432 1356 3 
753 1432 1431 1 
754 1106 1432 3 
755 1106 1105 1 
756 877 5875 2 
757 1356 1106 3 
758 1356 1355 1 
759 6142 1372 3 
760 1372 1371 1 
761 1105 1135 2 
762 6141 6142 1 
763 367 6141 2 
764 1662 1650 3 
765 1650 1649 1 
766 2386 2138 3 
767 2386 2385 1 
768 2138 2144 3 
769 2138 2137 1 
770 1407 2169 2 
771 1408 2138 3 
772 1408 1407 1 
773 1408 2144 3 
774 1408 2386 3 
775 2169 2170 1 
776 1892 1876 3 
777 1892 1891 1 
778 1876 2166 3 
779 1876 1875 1 
780 1642 1641 1 
781 2362 1642 3 
782 2121 2375 2 
783 2903 3133 2 
784 2903 2904 1 
785 2904 2390 3 
786 1895 2401 2 
787 2854 2853 1 
788 3100 2854 3 
789 3370 3369 1 
790 3162 3370 3 
791 3135 3909 2 
792 3135 3136 1 
793 2878 2877 1 
794 3136 2878 3 
795 3375 3883 2 
796 3622 3621 1 
797 4924 3622 3 
798 4103 4115 2 
799 4120 5356 3 
800 4120 4119 1 
801 5356 5122 3 
802 5356 5355 1 
803 5122 4120 3 
804 5122 5121 1 
805 5121 5143 2 
806 4675 4887 2 
807 5612 5611 1 
808 5625 5626 1 
809 4371 5625 2 
810 373 5891 2 
811 102 6086 3 
812 102 101 1 
813 102 878 3 
814 615 1431 2 
815 124 6114 3 
816 124 123 1 
817 124 128 3 
818 6114 390 3 
819 6114 6113 1 
820 128 6114 3 
821 128 127 1 
822 128 390 3 
823 390 124 3 
824 390 389 1 
825 1136 1135 1 
826 1134 1136 3 
827 2129 2175 2 
828 2361 2362 1 
829 1635 2405 2 
830 1896 1670 3 
831 1896 1895 1 
832 1896 2622 3 
833 1670 1364 3 
834 1670 1669 1 
835 1670 2622 3 
836 1364 1896 3 
837 1364 1363 1 
838 2648 1938 3 
839 2648 2647 1 
840 2662 2648 3 
841 2662 2661 1 
842 2390 2389 1 
843 2651 2675 2 
844 2655 3151 2 
845 3161 4141 2 
846 3161 3162 1 
847 3923 4923 2 
848 4923 4924 1 
849 3621 4421 2 
850 5132 3916 3 
851 5132 5131 1 
852 4136 3916 3 
853 4136 4135 1 
854 4136 5132 3 
855 2912 2911 1 
856 3886 2912 3 
857 4412 4154 3 
858 4412 4411 1 
859 3916 3678 3 
860 3916 3915 1 
861 3390 4412 3 
862 3390 3389 1 
863 4154 3390 3 
864 4154 4153 1 
865 3678 4136 3 
866 3678 3677 1 
867 3678 5132 3 
868 4406 4932 3 
869 4406 4405 1 
870 4932 5410 3 
871 4932 4931 1 
872 5410 4406 3 
873 5410 5409 1 
874 5394 4678 3 
875 4678 4677 1 
876 4852 4394 3 
877 4852 4851 1 
878 5144 5143 1 
879 5393 5394 1 
880 5154 5144 3 
881 4662 5396 3 
882 4662 4661 1 
883 4662 4676 3 
884 4662 5148 3 
885 5128 5916 3 
886 5128 5127 1 
887 5128 5910 3 
888 5910 5624 3 
889 5910 5909 1 
890 5910 5916 3 
891 5624 5128 3 
892 5624 5623 1 
893 5916 5624 3 
894 5916 5915 1 
895 121 123 2 
896 1151 6159 2 
897 1430 622 3 
898 1430 1429 1 
899 1144 1430 3 
900 1144 1143 1 
901 622 1144 3 
902 622 621 1 
903 1920 2188 3 
904 1920 1919 1 
905 1920 2176 3 
906 1938 2662 3 
907 1938 1937 1 
908 1853 1854 1 
909 1853 2155 2 
910 1901 1903 2 
911 2156 2392 3 
912 2156 2155 1 
913 2418 2156 3 
914 2418 2417 1 
915 2652 2154 3 
916 2652 2651 1 
917 2898 2652 3 
918 2898 2897 1 
919 2154 2898 3 
920 2154 2153 1 
921 2871 2907 2 
922 2920 2430 3 
923 2430 2429 1 
924 2656 2934 3 
925 2656 2655 1 
926 3174 2656 3 
927 3174 3173 1 
928 2919 2920 1 
929 2157 2919 2 
930 3163 3173 2 
931 4142 3900 3 
932 4142 4141 1 
933 3389 4659 2 
934 3670 3914 3 
935 3670 3669 1 
936 3914 3404 3 
937 3914 3913 1 
938 3908 3670 3 
939 3908 3907 1 
940 3908 3914 3 
941 3677 4149 2 
942 3378 4134 3 
943 5409 5427 2 
944 4877 4931 2 
945 5153 5154 1 
946 4893 5153 2 
947 5926 5642 3 
948 5926 5925 1 
949 404 5926 3 
950 404 403 1 
951 5642 404 3 
952 5642 5641 1 
953 403 5389 2 
954 163 6181 2 
955 6213 6214 1 
956 655 6213 2 
957 931 932 1 
958 937 1207 2 
959 937 938 1 
960 1181 1191 2 
961 2404 1902 3 
962 2404 2403 1 
963 1902 1936 3 
964 1902 1901 1 
965 1936 2200 3 
966 1936 1935 1 
967 1936 2404 3 
968 2200 1902 3 
969 2200 2199 1 
970 2200 2404 3 
971 1435 1436 1 
972 1435 2447 2 
973 2403 2411 2 
974 2908 2664 3 
975 2908 2907 1 
976 2664 3170 3 
977 2664 2663 1 
978 3170 2908 3 
979 3170 3169 1 
980 3164 3666 3 
981 3164 3163 1 
982 3164 3388 3 
983 3388 3906 3 
984 3388 3387 1 
985 3388 3666 3 
986 3906 3164 3 
987 3906 3905 1 
988 3666 3906 3 
989 3666 3665 1 
990 3665 4147 2 
991 3905 4177 2 
992 3663 3899 2 
993 3413 3669 2 
994 3377 3378 1 
995 4402 5156 3 
996 4402 4401 1 
997 5156 4962 3 
998 5156 5155 1 
999 4962 4402 3 
1000 4962 4961 1 
1001 4894 4652 3 
1002 4894 4893 1 
1003 4894 5618 3 
1004 5168 4894 3 
1005 5168 5167 1 
1006 5168 5618 3 
1007 4652 5168 3 
1008 4652 4651 1 
1009 5618 4652 3 
1010 5618 5617 1 
1011 4195 5155 2 
1012 5440 5940 3 
1013 5440 5439 1 
1014 5440 5914 3 
1015 5125 5126 1 
1016 5940 5914 3 
1017 5940 5939 1 
1018 4389 5125 2 
1019 5914 5162 3 
1020 5914 5913 1 
1021 5413 5659 2 
1022 5390 5654 3 
1023 5390 5389 1 
1024 5692 5390 3 
1025 5692 5691 1 
1026 5397 5885 2 
1027 5650 5658 3 
1028 5650 5649 1 
1029 5398 420 3 
1030 5398 5397 1 
1031 5398 5650 3 
1032 5398 5658 3 
1033 172 914 3 
1034 172 171 1 
1035 172 430 3 
1036 172 674 3 
1037 689 893 2 
1038 914 674 3 
1039 914 913 1 
1040 430 914 3 
1041 430 429 1 
1042 674 430 3 
1043 674 673 1 
1044 183 691 2 
1045 692 702 3 
1046 692 691 1 
1047 692 952 3 
1048 702 952 3 
1049 702 701 1 
1050 6214 440 3 
1051 701 1173 2 
1052 1665 1666 1 
1053 1453 1665 2 
1054 1454 1453 1 
1055 1666 1454 3 
1056 2431 2437 2 
1057 1935 2927 2 
1058 2927 2928 1 
1059 1436 2448 3 
1060 3392 2198 3 
1061 3392 3391 1 
1062 2198 2684 3 
1063 2198 2197 1 
1064 2663 2683 2 
1065 2688 2722 3 
1066 2688 2687 1 
1067 2422 2688 3 
1068 2422 2421 1 
1069 2722 2422 3 
1070 2722 2721 1 
1071 3402 2900 3 
1072 2900 2899 1 
1073 3414 3204 3 
1074 3414 3413 1 
1075 4443 4444 1 
1076 4414 4914 3 
1077 4414 4413 1 
1078 5160 4414 3 
1079 5160 5159 1 
1080 4914 3938 3 
1081 4914 4913 1 
1082 4914 5160 3 
1083 5416 5166 3 
1084 5416 5415 1 
1085 5166 4390 3 
1086 5166 5165 1 
1087 4390 5370 3 
1088 4390 4389 1 
1089 4390 5416 3 
1090 5370 5166 3 
1091 5370 5369 1 
1092 5370 5416 3 
1093 5183 5453 2 
1094 5670 5669 1 
1095 5184 5183 1 
1096 5672 5670 3 
1097 6217 6218 1 
1098 5444 5660 3 
1099 5444 5443 1 
1100 5660 5956 3 
1101 5660 5659 1 
1102 5956 5444 3 
1103 5956 5955 1 
1104 1178 894 3 
1105 1178 1177 1 
1106 669 945 2 
1107 670 1178 3 
1108 670 669 1 
1109 693 1177 2 
1110 194 193 1 
1111 196 194 3 
1112 405 913 2 
1113 214 213 1 
1114 452 214 3 
1115 6195 6196 1 
1116 709 1461 2 
1117 672 936 3 
1118 672 671 1 
1119 672 710 3 
1120 682 672 3 
1121 682 681 1 
1122 682 710 3 
1123 710 936 3 
1124 710 709 1 
1125 936 682 3 
1126 936 935 1 
1127 1226 1214 3 
1128 1226 1225 1 
1129 1226 2204 3 
1130 726 1214 3 
1131 726 725 1 
1132 726 1226 3 
1133 671 921 2 
1134 1689 1959 2 
1135 2684 2902 3 
1136 2684 2683 1 
1137 2684 3392 3 
1138 2902 2198 3 
1139 2902 2901 1 
1140 2902 3392 3 
1141 2956 2458 3 
1142 2956 2955 1 
1143 2220 2940 3 
1144 2220 2219 1 
1145 2220 2458 3 
1146 2220 2956 3 
1147 2940 2956 3 
1148 2940 2939 1 
1149 1663 1664 1 
1150 1663 2721 2 
1151 4672 4671 1 
1152 4220 4672 3 
1153 3460 3459 1 
1154 3976 3460 3 
1155 3437 3439 2 
1156 3429 3693 2 
1157 3430 3930 3 
1158 3430 3429 1 
1159 4166 3430 3 
1160 4166 4165 1 
1161 4698 4448 3 
1162 4698 4697 1 
1163 4210 4698 3 
1164 4210 4209 1 
1165 3938 4414 3 
1166 3938 3937 1 
1167 3938 5160 3 
1168 4683 4945 2 
1169 4913 5165 2 
1170 6218 424 3 
1171 424 423 1 
1172 894 670 3 
1173 894 893 1 
1174 209 729 2 
1175 6198 5960 3 
1176 6198 6197 1 
1177 5960 450 3 
1178 5960 5959 1 
1179 450 6198 3 
1180 450 449 1 
1181 6196 406 3 
1182 694 693 1 
1183 406 405 1 
1184 436 1180 3 
1185 436 435 1 
1186 428 694 3 
1187 1180 458 3 
1188 1180 1179 1 
1189 457 6199 2 
1190 1422 1496 3 
1191 1422 1421 1 
1192 1422 1480 3 
1193 1422 1462 3 
1194 1713 1983 2 
1195 1214 2204 3 
1196 1214 1213 1 
1197 1225 1421 2 
1198 2204 726 3 
1199 2204 2203 1 
1200 2172 1966 3 
1201 1966 1965 1 
1202 3979 3983 2 
1203 3980 3979 1 
1204 3474 3980 3 
1205 3459 3957 2 
1206 3482 4202 3 
1207 3482 3481 1 
1208 4436 3482 3 
1209 4436 4435 1 
1210 3421 3422 1 
1211 3421 3711 2 
1212 3719 3931 2 
1213 3690 3888 3 
1214 3690 3689 1 
1215 3498 3690 3 
1216 3498 3497 1 
1217 3888 3498 3 
1218 3888 3887 1 
1219 3661 3927 2 
1220 4956 3932 3 
1221 4956 4955 1 
1222 3694 4956 3 
1223 3694 3693 1 
1224 3694 3934 3 
1225 3694 3932 3 
1226 3934 4956 3 
1227 3934 3933 1 
1228 3932 3934 3 
1229 3932 3931 1 
1230 3939 4163 2 
1231 4425 4955 2 
1232 4209 5451 2 
1233 4448 4210 3 
1234 4448 4447 1 
1235 4946 5190 3 
1236 4946 4945 1 
1237 5190 4708 3 
1238 5190 5189 1 
1239 4708 4946 3 
1240 4708 4707 1 
1241 5723 5724 1 
1242 5723 6221 2 
1243 5963 5979 2 
1244 5724 5714 3 
1245 5470 5696 3 
1246 5470 5469 1 
1247 5696 5230 3 
1248 5696 5695 1 
1249 5696 6240 3 
1250 6240 5470 3 
1251 6240 6239 1 
1252 5206 5964 3 
1253 5206 5205 1 
1254 5206 5938 3 
1255 6174 5206 3 
1256 6174 6173 1 
1257 5938 5964 3 
1258 5938 5937 1 
1259 5938 6174 3 
1260 5967 6173 2 
1261 5181 5182 1 
1262 462 198 3 
1263 198 197 1 
1264 6197 6219 2 
1265 458 436 3 
1266 458 457 1 
1267 222 178 3 
1268 178 177 1 
1269 699 1215 2 
1270 1457 1479 2 
1271 472 216 3 
1272 472 471 1 
1273 472 1714 3 
1274 216 6200 3 
1275 216 215 1 
1276 216 1714 3 
1277 6200 472 3 
1278 6200 6199 1 
1279 1714 6200 3 
1280 1714 1713 1 
1281 1720 1719 1 
1282 1720 2206 3 
1283 1964 1720 3 
1284 1964 1963 1 
1285 1964 2206 3 
1286 1942 1964 3 
1287 1942 1941 1 
1288 1942 2206 3 
1289 2236 1736 3 
1290 2236 2235 1 
1291 1684 1716 3 
1292 1684 1683 1 
1293 2460 2700 3 
1294 2460 2459 1 
1295 2946 2704 3 
1296 2946 2945 1 
1297 2946 3226 3 
1298 3226 2704 3 
1299 3226 3225 1 
1300 3226 3424 3 
1301 2704 3424 3 
1302 2704 2703 1 
1303 3424 2946 3 
1304 3424 3423 1 
1305 3984 2450 3 
1306 3984 3983 1 
1307 2450 3208 3 
1308 2450 2449 1 
1309 4202 3462 3 
1310 4202 4201 1 
1311 4202 4436 3 
1312 2929 2930 1 
1313 3473 3474 1 
1314 3473 4193 2 
1315 3714 3713 1 
1316 3944 3714 3 
1317 3940 3706 3 
1318 3940 3939 1 
1319 3933 3959 2 
1320 4969 4987 2 
1321 5441 5442 1 
1322 5245 5246 1 
1323 5245 5961 2 
1324 5693 5695 2 
1325 5713 6005 2 
1326 465 6239 2 
1327 5463 5937 2 
1328 705 6191 2 
1329 1467 1468 1 
1330 975 1467 2 
1331 471 661 2 
1332 1459 1709 2 
1333 1982 1460 3 
1334 1982 1981 1 
1335 1982 2462 3 
1336 1486 2236 3 
1337 1486 1485 1 
1338 1486 2730 3 
1339 1486 1736 3 
1340 1736 2730 3 
1341 1736 1735 1 
1342 2730 2236 3 
1343 2730 2729 1 
1344 1460 2216 3 
1345 1460 1459 1 
1346 1460 2462 3 
1347 2216 1982 3 
1348 2216 2215 1 
1349 2216 2230 3 
1350 2230 2462 3 
1351 1945 2227 2 
1352 2700 3472 3 
1353 2700 2699 1 
1354 2232 2460 3 
1355 2232 2231 1 
1356 2232 2700 3 
1357 2232 3472 3 
1358 2953 2954 1 
1359 2189 2953 2 
1360 3472 2460 3 
1361 3472 3471 1 
1362 2757 3461 2 
1363 4970 4260 3 
1364 4970 4969 1 
1365 4479 4713 2 
1366 4446 4226 3 
1367 4446 4445 1 
1368 4218 4446 3 
1369 4218 4217 1 
1370 4226 4218 3 
1371 4226 4225 1 
1372 4016 4232 3 
1373 4480 4970 3 
1374 4480 4479 1 
1375 4232 4231 1 
1376 3761 5441 2 
1377 5510 3752 3 
1378 5510 5509 1 
1379 4978 5510 3 
1380 4978 4977 1 
1381 5246 5248 3 
1382 5248 5247 1 
1383 466 5464 3 
1384 466 465 1 
1385 5468 230 3 
1386 5468 5467 1 
1387 202 5468 3 
1388 202 201 1 
1389 202 5992 3 
1390 202 230 3 
1391 5464 232 3 
1392 5464 5463 1 
1393 5247 5497 2 
1394 232 466 3 
1395 232 231 1 
1396 230 5992 3 
1397 230 229 1 
1398 231 5973 2 
1399 504 6238 3 
1400 504 503 1 
1401 6238 6250 3 
1402 6238 6237 1 
1403 6250 504 3 
1404 6250 6249 1 
1405 971 972 1 
1406 972 1004 3 
1407 1004 750 3 
1408 1004 1003 1 
1409 734 1004 3 
1410 734 733 1 
1411 734 972 3 
1412 750 734 3 
1413 750 749 1 
1414 476 972 3 
1415 476 750 3 
1416 260 259 1 
1417 260 476 3 
1418 987 988 1 
1419 987 6229 2 
1420 988 260 3 
1421 1468 1726 3 
1422 731 749 2 
1423 1993 1994 1 
1424 1993 2729 2 
1425 2515 2747 2 
1426 3773 4747 2 
1427 4259 4721 2 
1428 4722 4990 3 
1429 4722 4721 1 
1430 4231 4751 2 
1431 4733 4734 1 
1432 4733 5025 2 
1433 5233 5509 2 
1434 4252 4508 3 
1435 5992 5468 3 
1436 5992 5991 1 
1437 5497 5498 1 
1438 13 229 2 
1439 5726 6216 3 
1440 5498 5726 3 
1441 5498 5998 3 
1442 438 6238 3 
1443 438 437 1 
1444 438 504 3 
1445 438 6250 3 
1446 5982 508 3 
1447 5982 5981 1 
1448 508 254 3 
1449 508 507 1 
1450 508 6026 3 
1451 5974 226 3 
1452 5974 5973 1 
1453 242 5974 3 
1454 242 226 3 
1455 242 241 1 
1456 236 242 3 
1457 236 5974 3 
1458 236 235 1 
1459 226 236 3 
1460 226 225 1 
1461 254 5982 3 
1462 254 253 1 
1463 254 6026 3 
1464 6026 5982 3 
1465 6026 6025 1 
1466 4997 5729 2 
1467 5730 5729 1 
1468 243 475 2 
1469 475 476 1 
1470 46 5730 3 
1471 5 733 2 
1472 753 754 1 
1473 259 753 2 
1474 723 989 2 
1475 234 233 1 
1476 506 234 3 
1477 1484 1762 3 
1478 1484 1483 1 
1479 983 1245 2 
1480 1245 1246 1 
1481 1538 2506 3 
1482 2506 2505 1 
1483 3512 3526 3 
1484 3526 3525 1 
1485 3015 3525 2 
1486 4530 4462 3 
1487 4530 4529 1 
1488 4002 4462 3 
1489 4002 4001 1 
1490 4002 4530 3 
1491 4002 4748 3 
1492 5027 5028 1 
1493 4748 4530 3 
1494 4748 4747 1 
1495 4462 4748 3 
1496 4462 4461 1 
1497 5222 4722 3 
1498 5222 5221 1 
1499 4284 5222 3 
1500 4284 4283 1 
1501 4284 4722 3 
1502 4284 4990 3 
1503 4990 5222 3 
1504 4990 4989 1 
1505 3771 4723 2 
1506 4752 5790 3 
1507 4752 4751 1 
1508 5508 4994 3 
1509 14 6228 3 
1510 14 13 1 
1511 14 6226 3 
1512 6228 5480 3 
1513 6228 6227 1 
1514 5731 5732 1 
1515 5981 6007 2 
1516 5732 266 3 
1517 266 265 1 
1518 249 5517 2 
1519 247 5753 2 
1520 764 310 3 
1521 310 309 1 
1522 6065 6066 1 
1523 489 519 2 
1524 1011 1483 2 
1525 268 1024 3 
1526 1024 1023 1 
1527 515 516 1 
1528 515 1263 2 
1529 3 747 2 
1530 269 270 1 
1531 509 1243 2 
1532 1013 1241 2 
1533 1241 1242 1 
1534 510 766 3 
1535 510 509 1 
1536 999 1761 2 
1537 4 1500 3 
1538 4 3 1 
1539 4 1750 3 
1540 4 1524 3 
1541 1750 1500 3 
1542 1750 1749 1 
1543 1279 2019 2 
1544 1242 486 3 
1545 1525 1765 2 
1546 1724 1748 3 
1547 1724 1723 1 
1548 1724 2012 3 
1549 1748 1766 3 
1550 1748 1747 1 
1551 2012 1748 3 
1552 2012 2011 1 
1553 1786 1008 3 
1554 1786 1785 1 
1555 1280 1786 3 
1556 1280 1279 1 
1557 1008 1280 3 
1558 1008 1007 1 
1559 1008 1508 3 
1560 1508 1280 3 
1561 1508 1507 1 
1562 1508 1786 3 
1563 1766 1724 3 
1564 1766 1765 1 
1565 1766 2012 3 
1566 1512 534 3 
1567 534 533 1 
1568 1507 2225 2 
1569 1723 2253 2 
1570 2253 2254 1 
1571 2785 2786 1 
1572 1751 2769 2 
1573 2279 2509 2 
1574 2280 2279 1 
1575 2280 2492 3 
1576 2280 2786 3 
1577 1518 2492 3 
1578 1518 2254 3 
1579 1518 2786 3 
1580 2252 2732 3 
1581 2252 2251 1 
1582 2252 2762 3 
1583 2507 2755 2 
1584 2536 2535 1 
1585 2496 2536 3 
1586 2768 2792 3 
1587 2768 2767 1 
1588 2495 2496 1 
1589 2762 1504 3 
1590 2762 2761 1 
1591 2732 1504 3 
1592 2732 2731 1 
1593 2732 2762 3 
1594 2792 3268 3 
1595 2792 2791 1 
1596 3018 2760 3 
1597 2491 2492 1 
1598 2491 2493 2 
1599 3268 2768 3 
1600 3268 3267 1 
1601 2535 3001 2 
1602 2791 3267 2 
1603 2251 2489 2 
1604 3261 3545 2 
1605 2778 3006 3 
1606 2778 2777 1 
1607 3002 2778 3 
1608 3002 3001 1 
1609 3002 3006 3 
1610 3006 2992 3 
1611 3006 3005 1 
1612 2992 2778 3 
1613 2992 2991 1 
1614 2992 3002 3 
1615 1996 1995 1 
1616 2746 1996 3 
1617 3496 3022 3 
1618 3546 3026 3 
1619 3546 3545 1 
1620 4258 3522 3 
1621 3522 3521 1 
1622 3003 3027 2 
1623 3523 4009 2 
1624 3278 4258 3 
1625 3278 3522 3 
1626 3518 3246 3 
1627 3543 3811 2 
1628 4018 3506 3 
1629 4018 4017 1 
1630 4018 4726 3 
1631 4504 4018 3 
1632 4504 4503 1 
1633 4504 4726 3 
1634 4017 4285 2 
1635 3539 3540 1 
1636 3506 4504 3 
1637 3506 3505 1 
1638 4286 4514 3 
1639 3505 3765 2 
1640 4514 4513 1 
1641 4749 4750 1 
1642 4749 5045 2 
1643 3540 4524 3 
1644 4750 4250 3 
1645 3766 3744 3 
1646 3766 3765 1 
1647 3766 4290 3 
1648 4744 3766 3 
1649 4744 4743 1 
1650 4290 4744 3 
1651 4290 4289 1 
1652 4289 4497 2 
1653 3744 4744 3 
1654 3744 3743 1 
1655 3744 4290 3 
1656 4781 5529 2 
1657 4515 4741 2 
1658 5244 5243 1 
1659 3772 4778 3 
1660 3772 3771 1 
1661 3772 4996 3 
1662 3772 4496 3 
1663 4996 4778 3 
1664 4996 4995 1 
1665 4496 4996 3 
1666 4496 4495 1 
1667 4778 4496 3 
1668 4778 4777 1 
1669 4736 5244 3 
1670 5496 5278 3 
1671 5496 5495 1 
1672 4735 4736 1 
1673 5013 5014 1 
1674 4777 5273 2 
1675 4490 5000 3 
1676 5000 4999 1 
1677 5520 5496 3 
1678 5520 5519 1 
1679 5741 5751 2 
1680 6019 6225 2 
1681 478 5742 3 
1682 478 477 1 
1683 5256 478 3 
1684 5256 5255 1 
1685 16 6034 3 
1686 16 15 1 
1687 500 16 3 
1688 500 499 1 
1689 6034 500 3 
1690 6034 6033 1 
1691 27 6033 2 
1692 5472 5748 3 
1693 5472 5471 1 
1694 6232 5472 3 
1695 6232 6231 1 
1696 5734 5472 3 
1697 5734 5733 1 
1698 5734 6232 3 
1699 245 1005 2 
1700 5783 5795 2 
1701 5783 5784 1 
1702 5761 6231 2 
1703 309 513 2 
1704 787 1029 2 
1705 1012 782 3 
1706 1012 1011 1 
1707 1012 1030 3 
1708 1012 1276 3 
1709 1030 782 3 
1710 1030 1029 1 
1711 1276 1030 3 
1712 1276 1275 1 
1713 763 764 1 
1714 5471 6065 2 
1715 21 22 1 
1716 21 511 2 
1717 271 763 2 
1718 6242 6010 3 
1719 33 501 2 
1720 512 511 1 
1721 512 274 3 
1722 512 5766 3 
1723 6010 6009 1 
1724 6010 5766 3 
1725 22 512 3 
1726 22 274 3 
1727 22 6242 3 
1728 274 273 1 
1729 274 6010 3 
1730 767 768 1 
1731 767 1043 2 
1732 782 1276 3 
1733 782 781 1 
1734 501 502 1 
1735 1042 1244 3 
1736 1042 1041 1 
1737 1244 778 3 
1738 1244 1243 1 
1739 778 1042 3 
1740 778 777 1 
1741 6241 6242 1 
1742 1021 1022 1 
1743 1270 1269 1 
1744 47 48 1 
1745 47 517 2 
1746 1770 1270 3 
1747 1259 1269 2 
1748 486 485 1 
1749 1780 1034 3 
1750 1780 1779 1 
1751 1033 1307 2 
1752 521 1067 2 