LAMMPS data file

6250 atoms
3125 bonds

7 atom types
1 bond types

0.0 72.168784 xlo xhi
0.0 72.168784 ylo yhi
0.0 12.000000 zlo zhi

Masses

1 1
2 1
3 1
4 1
5 1
6 1
7 1

Atoms

1 1 1 0.000000000000000 0.000000000000000 2.000000000000000
2 1 2 2.000000000000000 2.000000000000000 3.000000000000000
3 2 1 0.000000000000000 0.000000000000000 4.000000000000000
4 2 2 2.000000000000000 2.000000000000000 5.000000000000000
5 3 1 0.000000000000000 0.000000000000000 6.000000000000000
6 3 2 2.000000000000000 2.000000000000000 7.000000000000000
7 4 1 0.000000000000000 0.000000000000000 8.000000000000000
8 4 2 2.000000000000000 2.000000000000000 9.000000000000000
9 5 1 0.000000000000000 0.000000000000000 10.000000000000000
10 5 2 2.000000000000000 2.000000000000000 11.000000000000000
11 6 1 0.000000000000000 2.886751345948129 2.000000000000000
12 6 2 2.000000000000000 4.886751345948129 3.000000000000000
13 7 1 0.000000000000000 2.886751345948129 4.000000000000000
14 7 2 2.000000000000000 4.886751345948129 5.000000000000000
15 8 1 0.000000000000000 2.886751345948129 6.000000000000000
16 8 2 2.000000000000000 4.886751345948129 7.000000000000000
17 9 1 0.000000000000000 2.886751345948129 8.000000000000000
18 9 2 2.000000000000000 4.886751345948129 9.000000000000000
19 10 1 0.000000000000000 2.886751345948129 10.000000000000000
20 10 2 2.000000000000000 4.886751345948129 11.000000000000000
21 11 1 0.000000000000000 5.773502691896258 2.000000000000000
22 11 2 2.000000000000000 7.773502691896258 3.000000000000000
23 12 1 0.000000000000000 5.773502691896258 4.000000000000000
24 12 2 2.000000000000000 7.773502691896258 5.000000000000000
25 13 1 0.000000000000000 5.773502691896258 6.000000000000000
26 13 2 2.000000000000000 7.773502691896258 7.000000000000000
27 14 1 0.000000000000000 5.773502691896258 8.000000000000000
28 14 2 2.000000000000000 7.773502691896258 9.000000000000000
29 15 1 0.000000000000000 5.773502691896258 10.000000000000000
30 15 2 2.000000000000000 7.773502691896258 11.000000000000000
31 16 1 0.000000000000000 8.660254037844387 2.000000000000000
32 16 2 2.000000000000000 10.660254037844387 3.000000000000000
33 17 1 0.000000000000000 8.660254037844387 4.000000000000000
34 17 2 2.000000000000000 10.660254037844387 5.000000000000000
35 18 1 0.000000000000000 8.660254037844387 6.000000000000000
36 18 2 2.000000000000000 10.660254037844387 7.000000000000000
37 19 1 0.000000000000000 8.660254037844387 8.000000000000000
38 19 2 2.000000000000000 10.660254037844387 9.000000000000000
39 20 1 0.000000000000000 8.660254037844387 10.000000000000000
40 20 2 2.000000000000000 10.660254037844387 11.000000000000000
41 21 1 0.000000000000000 11.547005383792516 2.000000000000000
42 21 2 2.000000000000000 13.547005383792516 3.000000000000000
43 22 1 0.000000000000000 11.547005383792516 4.000000000000000
44 22 2 2.000000000000000 13.547005383792516 5.000000000000000
45 23 1 0.000000000000000 11.547005383792516 6.000000000000000
46 23 2 2.000000000000000 13.547005383792516 7.000000000000000
47 24 1 0.000000000000000 11.547005383792516 8.000000000000000
48 24 2 2.000000000000000 13.547005383792516 9.000000000000000
49 25 1 0.000000000000000 11.547005383792516 10.000000000000000
50 25 2 2.000000000000000 13.547005383792516 11.000000000000000
51 26 1 0.000000000000000 14.433756729740645 2.000000000000000
52 26 2 2.000000000000000 16.433756729740644 3.000000000000000
53 27 1 0.000000000000000 14.433756729740645 4.000000000000000
54 27 2 2.000000000000000 16.433756729740644 5.000000000000000
55 28 1 0.000000000000000 14.433756729740645 6.000000000000000
56 28 2 2.000000000000000 16.433756729740644 7.000000000000000
57 29 1 0.000000000000000 14.433756729740645 8.000000000000000
58 29 2 2.000000000000000 16.433756729740644 9.000000000000000
59 30 1 0.000000000000000 14.433756729740645 10.000000000000000
60 30 2 2.000000000000000 16.433756729740644 11.000000000000000
61 31 1 0.000000000000000 17.320508075688775 2.000000000000000
62 31 2 2.000000000000000 19.320508075688775 3.000000000000000
63 32 1 0.000000000000000 17.320508075688775 4.000000000000000
64 32 2 2.000000000000000 19.320508075688775 5.000000000000000
65 33 1 0.000000000000000 17.320508075688775 6.000000000000000
66 33 2 2.000000000000000 19.320508075688775 7.000000000000000
67 34 1 0.000000000000000 17.320508075688775 8.000000000000000
68 34 2 2.000000000000000 19.320508075688775 9.000000000000000
69 35 1 0.000000000000000 17.320508075688775 10.000000000000000
70 35 2 2.000000000000000 19.320508075688775 11.000000000000000
71 36 1 0.000000000000000 20.207259421636905 2.000000000000000
72 36 2 2.000000000000000 22.207259421636905 3.000000000000000
73 37 1 0.000000000000000 20.207259421636905 4.000000000000000
74 37 2 2.000000000000000 22.207259421636905 5.000000000000000
75 38 1 0.000000000000000 20.207259421636905 6.000000000000000
76 38 2 2.000000000000000 22.207259421636905 7.000000000000000
77 39 1 0.000000000000000 20.207259421636905 8.000000000000000
78 39 2 2.000000000000000 22.207259421636905 9.000000000000000
79 40 1 0.000000000000000 20.207259421636905 10.000000000000000
80 40 2 2.000000000000000 22.207259421636905 11.000000000000000
81 41 1 0.000000000000000 23.094010767585033 2.000000000000000
82 41 2 2.000000000000000 25.094010767585033 3.000000000000000
83 42 1 0.000000000000000 23.094010767585033 4.000000000000000
84 42 2 2.000000000000000 25.094010767585033 5.000000000000000
85 43 1 0.000000000000000 23.094010767585033 6.000000000000000
86 43 2 2.000000000000000 25.094010767585033 7.000000000000000
87 44 1 0.000000000000000 23.094010767585033 8.000000000000000
88 44 2 2.000000000000000 25.094010767585033 9.000000000000000
89 45 1 0.000000000000000 23.094010767585033 10.000000000000000
90 45 2 2.000000000000000 25.094010767585033 11.000000000000000
91 46 1 0.000000000000000 25.980762113533160 2.000000000000000
92 46 2 2.000000000000000 27.980762113533160 3.000000000000000
93 47 1 0.000000000000000 25.980762113533160 4.000000000000000
94 47 2 2.000000000000000 27.980762113533160 5.000000000000000
95 48 1 0.000000000000000 25.980762113533160 6.000000000000000
96 48 2 2.000000000000000 27.980762113533160 7.000000000000000
97 49 1 0.000000000000000 25.980762113533160 8.000000000000000
98 49 2 2.000000000000000 27.980762113533160 9.000000000000000
99 50 1 0.000000000000000 25.980762113533160 10.000000000000000
100 50 2 2.000000000000000 27.980762113533160 11.000000000000000
101 51 1 0.000000000000000 28.867513459481291 2.000000000000000
102 51 2 2.000000000000000 30.867513459481291 3.000000000000000
103 52 1 0.000000000000000 28.867513459481291 4.000000000000000
104 52 2 2.000000000000000 30.867513459481291 5.000000000000000
105 53 1 0.000000000000000 28.867513459481291 6.000000000000000
106 53 2 2.000000000000000 30.867513459481291 7.000000000000000
107 54 1 0.000000000000000 28.867513459481291 8.000000000000000
108 54 2 2.000000000000000 30.867513459481291 9.000000000000000
109 55 1 0.000000000000000 28.867513459481291 10.000000000000000
110 55 2 2.000000000000000 30.867513459481291 11.000000000000000
111 56 1 0.000000000000000 31.754264805429422 2.000000000000000
112 56 2 2.000000000000000 33.754264805429422 3.000000000000000
113 57 1 0.000000000000000 31.754264805429422 4.000000000000000
114 57 2 2.000000000000000 33.754264805429422 5.000000000000000
115 58 1 0.000000000000000 31.754264805429422 6.000000000000000
116 58 2 2.000000000000000 33.754264805429422 7.000000000000000
117 59 1 0.000000000000000 31.754264805429422 8.000000000000000
118 59 2 2.000000000000000 33.754264805429422 9.000000000000000
119 60 1 0.000000000000000 31.754264805429422 10.000000000000000
120 60 2 2.000000000000000 33.754264805429422 11.000000000000000
121 61 1 0.000000000000000 34.641016151377549 2.000000000000000
122 61 2 2.000000000000000 36.641016151377549 3.000000000000000
123 62 1 0.000000000000000 34.641016151377549 4.000000000000000
124 62 2 2.000000000000000 36.641016151377549 5.000000000000000
125 63 1 0.000000000000000 34.641016151377549 6.000000000000000
126 63 2 2.000000000000000 36.641016151377549 7.000000000000000
127 64 1 0.000000000000000 34.641016151377549 8.000000000000000
128 64 2 2.000000000000000 36.641016151377549 9.000000000000000
129 65 1 0.000000000000000 34.641016151377549 10.000000000000000
130 65 2 2.000000000000000 36.641016151377549 11.000000000000000
131 66 1 0.000000000000000 37.527767497325677 2.000000000000000
132 66 2 2.000000000000000 39.527767497325677 3.000000000000000
133 67 1 0.000000000000000 37.527767497325677 4.000000000000000
134 67 2 2.000000000000000 39.527767497325677 5.000000000000000
135 68 1 0.000000000000000 37.527767497325677 6.000000000000000
136 68 2 2.000000000000000 39.527767497325677 7.000000000000000
137 69 1 0.000000000000000 37.527767497325677 8.000000000000000
138 69 2 2.000000000000000 39.527767497325677 9.000000000000000
139 70 1 0.000000000000000 37.527767497325677 10.000000000000000
140 70 2 2.000000000000000 39.527767497325677 11.000000000000000
141 71 1 0.000000000000000 40.414518843273811 2.000000000000000
142 71 2 2.000000000000000 42.414518843273811 3.000000000000000
143 72 1 0.000000000000000 40.414518843273811 4.000000000000000
144 72 2 2.000000000000000 42.414518843273811 5.000000000000000
145 73 1 0.000000000000000 40.414518843273811 6.000000000000000
146 73 2 2.000000000000000 42.414518843273811 7.000000000000000
147 74 1 0.000000000000000 40.414518843273811 8.000000000000000
148 74 2 2.000000000000000 42.414518843273811 9.000000000000000
149 75 1 0.000000000000000 40.414518843273811 10.000000000000000
150 75 2 2.000000000000000 42.414518843273811 11.000000000000000
151 76 1 0.000000000000000 43.301270189221938 2.000000000000000
152 76 2 2.000000000000000 45.301270189221938 3.000000000000000
153 77 1 0.000000000000000 43.301270189221938 4.000000000000000
154 77 2 2.000000000000000 45.301270189221938 5.000000000000000
155 78 1 0.000000000000000 43.301270189221938 6.000000000000000
156 78 2 2.000000000000000 45.301270189221938 7.000000000000000
157 79 1 0.000000000000000 43.301270189221938 8.000000000000000
158 79 2 2.000000000000000 45.301270189221938 9.000000000000000
159 80 1 0.000000000000000 43.301270189221938 10.000000000000000
160 80 2 2.000000000000000 45.301270189221938 11.000000000000000
161 81 1 0.000000000000000 46.188021535170066 2.000000000000000
162 81 2 2.000000000000000 48.188021535170066 3.000000000000000
163 82 1 0.000000000000000 46.188021535170066 4.000000000000000
164 82 2 2.000000000000000 48.188021535170066 5.000000000000000
165 83 1 0.000000000000000 46.188021535170066 6.000000000000000
166 83 2 2.000000000000000 48.188021535170066 7.000000000000000
167 84 1 0.000000000000000 46.188021535170066 8.000000000000000
168 84 2 2.000000000000000 48.188021535170066 9.000000000000000
169 85 1 0.000000000000000 46.188021535170066 10.000000000000000
170 85 2 2.000000000000000 48.188021535170066 11.000000000000000
171 86 1 0.000000000000000 49.074772881118193 2.000000000000000
172 86 2 2.000000000000000 51.074772881118193 3.000000000000000
173 87 1 0.000000000000000 49.074772881118193 4.000000000000000
174 87 2 2.000000000000000 51.074772881118193 5.000000000000000
175 88 1 0.000000000000000 49.074772881118193 6.000000000000000
176 88 2 2.000000000000000 51.074772881118193 7.000000000000000
177 89 1 0.000000000000000 49.074772881118193 8.000000000000000
178 89 2 2.000000000000000 51.074772881118193 9.000000000000000
179 90 1 0.000000000000000 49.074772881118193 10.000000000000000
180 90 2 2.000000000000000 51.074772881118193 11.000000000000000
181 91 1 0.000000000000000 51.961524227066320 2.000000000000000
182 91 2 2.000000000000000 53.961524227066320 3.000000000000000
183 92 1 0.000000000000000 51.961524227066320 4.000000000000000
184 92 2 2.000000000000000 53.961524227066320 5.000000000000000
185 93 1 0.000000000000000 51.961524227066320 6.000000000000000
186 93 2 2.000000000000000 53.961524227066320 7.000000000000000
187 94 1 0.000000000000000 51.961524227066320 8.000000000000000
188 94 2 2.000000000000000 53.961524227066320 9.000000000000000
189 95 1 0.000000000000000 51.961524227066320 10.000000000000000
190 95 2 2.000000000000000 53.961524227066320 11.000000000000000
191 96 1 0.000000000000000 54.848275573014455 2.000000000000000
192 96 2 2.000000000000000 56.848275573014455 3.000000000000000
193 97 1 0.000000000000000 54.848275573014455 4.000000000000000
194 97 2 2.000000000000000 56.848275573014455 5.000000000000000
195 98 1 0.000000000000000 54.848275573014455 6.000000000000000
196 98 2 2.000000000000000 56.848275573014455 7.000000000000000
197 99 1 0.000000000000000 54.848275573014455 8.000000000000000
198 99 2 2.000000000000000 56.848275573014455 9.000000000000000
199 100 1 0.000000000000000 54.848275573014455 10.000000000000000
200 100 2 2.000000000000000 56.848275573014455 11.000000000000000
201 101 1 0.000000000000000 57.735026918962582 2.000000000000000
202 101 2 2.000000000000000 59.735026918962582 3.000000000000000
203 102 1 0.000000000000000 57.735026918962582 4.000000000000000
204 102 2 2.000000000000000 59.735026918962582 5.000000000000000
205 103 1 0.000000000000000 57.735026918962582 6.000000000000000
206 103 2 2.000000000000000 59.735026918962582 7.000000000000000
207 104 1 0.000000000000000 57.735026918962582 8.000000000000000
208 104 2 2.000000000000000 59.735026918962582 9.000000000000000
209 105 1 0.000000000000000 57.735026918962582 10.000000000000000
210 105 2 2.000000000000000 59.735026918962582 11.000000000000000
211 106 1 0.000000000000000 60.621778264910709 2.000000000000000
212 106 2 2.000000000000000 62.621778264910709 3.000000000000000
213 107 1 0.000000000000000 60.621778264910709 4.000000000000000
214 107 2 2.000000000000000 62.621778264910709 5.000000000000000
215 108 1 0.000000000000000 60.621778264910709 6.000000000000000
216 108 2 2.000000000000000 62.621778264910709 7.000000000000000
217 109 1 0.000000000000000 60.621778264910709 8.000000000000000
218 109 2 2.000000000000000 62.621778264910709 9.000000000000000
219 110 1 0.000000000000000 60.621778264910709 10.000000000000000
220 110 2 2.000000000000000 62.621778264910709 11.000000000000000
221 111 1 0.000000000000000 63.508529610858844 2.000000000000000
222 111 2 2.000000000000000 65.508529610858844 3.000000000000000
223 112 1 0.000000000000000 63.508529610858844 4.000000000000000
224 112 2 2.000000000000000 65.508529610858844 5.000000000000000
225 113 1 0.000000000000000 63.508529610858844 6.000000000000000
226 113 2 2.000000000000000 65.508529610858844 7.000000000000000
227 114 1 0.000000000000000 63.508529610858844 8.000000000000000
228 114 2 2.000000000000000 65.508529610858844 9.000000000000000
229 115 1 0.000000000000000 63.508529610858844 10.000000000000000
230 115 2 2.000000000000000 65.508529610858844 11.000000000000000
231 116 1 0.000000000000000 66.395280956806971 2.000000000000000
232 116 2 2.000000000000000 68.395280956806971 3.000000000000000
233 117 1 0.000000000000000 66.395280956806971 4.000000000000000
234 117 2 2.000000000000000 68.395280956806971 5.000000000000000
235 118 1 0.000000000000000 66.395280956806971 6.000000000000000
236 118 2 2.000000000000000 68.395280956806971 7.000000000000000
237 119 1 0.000000000000000 66.395280956806971 8.000000000000000
238 119 2 2.000000000000000 68.395280956806971 9.000000000000000
239 120 1 0.000000000000000 66.395280956806971 10.000000000000000
240 120 2 2.000000000000000 68.395280956806971 11.000000000000000
241 121 1 0.000000000000000 69.282032302755098 2.000000000000000
242 121 2 2.000000000000000 71.282032302755098 3.000000000000000
243 122 1 0.000000000000000 69.282032302755098 4.000000000000000
244 122 2 2.000000000000000 71.282032302755098 5.000000000000000
245 123 1 0.000000000000000 69.282032302755098 6.000000000000000
246 123 2 2.000000000000000 71.282032302755098 7.000000000000000
247 124 1 0.000000000000000 69.282032302755098 8.000000000000000
248 124 2 2.000000000000000 71.282032302755098 9.000000000000000
249 125 1 0.000000000000000 69.282032302755098 10.000000000000000
250 125 2 2.000000000000000 71.282032302755098 11.000000000000000
251 126 1 2.886751345948129 0.000000000000000 2.000000000000000
252 126 2 4.886751345948129 2.000000000000000 3.000000000000000
253 127 1 2.886751345948129 0.000000000000000 4.000000000000000
254 127 2 4.886751345948129 2.000000000000000 5.000000000000000
255 128 1 2.886751345948129 0.000000000000000 6.000000000000000
256 128 2 4.886751345948129 2.000000000000000 7.000000000000000
257 129 1 2.886751345948129 0.000000000000000 8.000000000000000
258 129 2 4.886751345948129 2.000000000000000 9.000000000000000
259 130 1 2.886751345948129 0.000000000000000 10.000000000000000
260 130 2 4.886751345948129 2.000000000000000 11.000000000000000
261 131 1 2.886751345948129 2.886751345948129 2.000000000000000
262 131 2 4.886751345948129 4.886751345948129 3.000000000000000
263 132 1 2.886751345948129 2.886751345948129 4.000000000000000
264 132 2 4.886751345948129 4.886751345948129 5.000000000000000
265 133 1 2.886751345948129 2.886751345948129 6.000000000000000
266 133 2 4.886751345948129 4.886751345948129 7.000000000000000
267 134 1 2.886751345948129 2.886751345948129 8.000000000000000
268 134 2 4.886751345948129 4.886751345948129 9.000000000000000
269 135 1 2.886751345948129 2.886751345948129 10.000000000000000
270 135 2 4.886751345948129 4.886751345948129 11.000000000000000
271 136 1 2.886751345948129 5.773502691896258 2.000000000000000
272 136 2 4.886751345948129 7.773502691896258 3.000000000000000
273 137 1 2.886751345948129 5.773502691896258 4.000000000000000
274 137 2 4.886751345948129 7.773502691896258 5.000000000000000
275 138 1 2.886751345948129 5.773502691896258 6.000000000000000
276 138 2 4.886751345948129 7.773502691896258 7.000000000000000
277 139 1 2.886751345948129 5.773502691896258 8.000000000000000
278 139 2 4.886751345948129 7.773502691896258 9.000000000000000
279 140 1 2.886751345948129 5.773502691896258 10.000000000000000
280 140 2 4.886751345948129 7.773502691896258 11.000000000000000
281 141 1 2.886751345948129 8.660254037844387 2.000000000000000
282 141 2 4.886751345948129 10.660254037844387 3.000000000000000
283 142 1 2.886751345948129 8.660254037844387 4.000000000000000
284 142 2 4.886751345948129 10.660254037844387 5.000000000000000
285 143 1 2.886751345948129 8.660254037844387 6.000000000000000
286 143 2 4.886751345948129 10.660254037844387 7.000000000000000
287 144 1 2.886751345948129 8.660254037844387 8.000000000000000
288 144 2 4.886751345948129 10.660254037844387 9.000000000000000
289 145 1 2.886751345948129 8.660254037844387 10.000000000000000
290 145 2 4.886751345948129 10.660254037844387 11.000000000000000
291 146 1 2.886751345948129 11.547005383792516 2.000000000000000
292 146 2 4.886751345948129 13.547005383792516 3.000000000000000
293 147 1 2.886751345948129 11.547005383792516 4.000000000000000
294 147 2 4.886751345948129 13.547005383792516 5.000000000000000
295 148 1 2.886751345948129 11.547005383792516 6.000000000000000
296 148 2 4.886751345948129 13.547005383792516 7.000000000000000
297 149 1 2.886751345948129 11.547005383792516 8.000000000000000
298 149 2 4.886751345948129 13.547005383792516 9.000000000000000
299 150 1 2.886751345948129 11.547005383792516 10.000000000000000
300 150 2 4.886751345948129 13.547005383792516 11.000000000000000
301 151 1 2.886751345948129 14.433756729740645 2.000000000000000
302 151 2 4.886751345948129 16.433756729740644 3.000000000000000
303 152 1 2.886751345948129 14.433756729740645 4.000000000000000
304 152 2 4.886751345948129 16.433756729740644 5.000000000000000
305 153 1 2.886751345948129 14.433756729740645 6.000000000000000
306 153 2 4.886751345948129 16.433756729740644 7.000000000000000
307 154 1 2.886751345948129 14.433756729740645 8.000000000000000
308 154 2 4.886751345948129 16.433756729740644 9.000000000000000
309 155 1 2.886751345948129 14.433756729740645 10.000000000000000
310 155 2 4.886751345948129 16.433756729740644 11.000000000000000
311 156 1 2.886751345948129 17.320508075688775 2.000000000000000
312 156 2 4.886751345948129 19.320508075688775 3.000000000000000
313 157 1 2.886751345948129 17.320508075688775 4.000000000000000
314 157 2 4.886751345948129 19.320508075688775 5.000000000000000
315 158 1 2.886751345948129 17.320508075688775 6.000000000000000
316 158 2 4.886751345948129 19.320508075688775 7.000000000000000
317 159 1 2.886751345948129 17.320508075688775 8.000000000000000
318 159 2 4.886751345948129 19.320508075688775 9.000000000000000
319 160 1 2.886751345948129 17.320508075688775 10.000000000000000
320 160 2 4.886751345948129 19.320508075688775 11.000000000000000
321 161 1 2.886751345948129 20.207259421636905 2.000000000000000
322 161 2 4.886751345948129 22.207259421636905 3.000000000000000
323 162 1 2.886751345948129 20.207259421636905 4.000000000000000
324 162 2 4.886751345948129 22.207259421636905 5.000000000000000
325 163 1 2.886751345948129 20.207259421636905 6.000000000000000
326 163 2 4.886751345948129 22.207259421636905 7.000000000000000
327 164 1 2.886751345948129 20.207259421636905 8.000000000000000
328 164 2 4.886751345948129 22.207259421636905 9.000000000000000
329 165 1 2.886751345948129 20.207259421636905 10.000000000000000
330 165 2 4.886751345948129 22.207259421636905 11.000000000000000
331 166 1 2.886751345948129 23.094010767585033 2.000000000000000
332 166 2 4.886751345948129 25.094010767585033 3.000000000000000
333 167 1 2.886751345948129 23.094010767585033 4.000000000000000
334 167 2 4.886751345948129 25.094010767585033 5.000000000000000
335 168 1 2.886751345948129 23.094010767585033 6.000000000000000
336 168 2 4.886751345948129 25.094010767585033 7.000000000000000
337 169 1 2.886751345948129 23.094010767585033 8.000000000000000
338 169 2 4.886751345948129 25.094010767585033 9.000000000000000
339 170 1 2.886751345948129 23.094010767585033 10.000000000000000
340 170 2 4.886751345948129 25.094010767585033 11.000000000000000
341 171 1 2.886751345948129 25.980762113533160 2.000000000000000
342 171 2 4.886751345948129 27.980762113533160 3.000000000000000
343 172 1 2.886751345948129 25.980762113533160 4.000000000000000
344 172 2 4.886751345948129 27.980762113533160 5.000000000000000
345 173 1 2.886751345948129 25.980762113533160 6.000000000000000
346 173 2 4.886751345948129 27.980762113533160 7.000000000000000
347 174 1 2.886751345948129 25.980762113533160 8.000000000000000
348 174 2 4.886751345948129 27.980762113533160 9.000000000000000
349 175 1 2.886751345948129 25.980762113533160 10.000000000000000
350 175 2 4.886751345948129 27.980762113533160 11.000000000000000
351 176 1 2.886751345948129 28.867513459481291 2.000000000000000
352 176 2 4.886751345948129 30.867513459481291 3.000000000000000
353 177 1 2.886751345948129 28.867513459481291 4.000000000000000
354 177 2 4.886751345948129 30.867513459481291 5.000000000000000
355 178 1 2.886751345948129 28.867513459481291 6.000000000000000
356 178 2 4.886751345948129 30.867513459481291 7.000000000000000
357 179 1 2.886751345948129 28.867513459481291 8.000000000000000
358 179 2 4.886751345948129 30.867513459481291 9.000000000000000
359 180 1 2.886751345948129 28.867513459481291 10.000000000000000
360 180 2 4.886751345948129 30.867513459481291 11.000000000000000
361 181 1 2.886751345948129 31.754264805429422 2.000000000000000
362 181 2 4.886751345948129 33.754264805429422 3.000000000000000
363 182 1 2.886751345948129 31.754264805429422 4.000000000000000
364 182 2 4.886751345948129 33.754264805429422 5.000000000000000
365 183 1 2.886751345948129 31.754264805429422 6.000000000000000
366 183 2 4.886751345948129 33.754264805429422 7.000000000000000
367 184 1 2.886751345948129 31.754264805429422 8.000000000000000
368 184 2 4.886751345948129 33.754264805429422 9.000000000000000
369 185 1 2.886751345948129 31.754264805429422 10.000000000000000
370 185 2 4.886751345948129 33.754264805429422 11.000000000000000
371 186 1 2.886751345948129 34.641016151377549 2.000000000000000
372 186 2 4.886751345948129 36.641016151377549 3.000000000000000
373 187 1 2.886751345948129 34.641016151377549 4.000000000000000
374 187 2 4.886751345948129 36.641016151377549 5.000000000000000
375 188 1 2.886751345948129 34.641016151377549 6.000000000000000
376 188 2 4.886751345948129 36.641016151377549 7.000000000000000
377 189 1 2.886751345948129 34.641016151377549 8.000000000000000
378 189 2 4.886751345948129 36.641016151377549 9.000000000000000
379 190 1 2.886751345948129 34.641016151377549 10.000000000000000
380 190 2 4.886751345948129 36.641016151377549 11.000000000000000
381 191 1 2.886751345948129 37.527767497325677 2.000000000000000
382 191 2 4.886751345948129 39.527767497325677 3.000000000000000
383 192 1 2.886751345948129 37.527767497325677 4.000000000000000
384 192 2 4.886751345948129 39.527767497325677 5.000000000000000
385 193 1 2.886751345948129 37.527767497325677 6.000000000000000
386 193 2 4.886751345948129 39.527767497325677 7.000000000000000
387 194 1 2.886751345948129 37.527767497325677 8.000000000000000
388 194 2 4.886751345948129 39.527767497325677 9.000000000000000
389 195 1 2.886751345948129 37.527767497325677 10.000000000000000
390 195 2 4.886751345948129 39.527767497325677 11.000000000000000
391 196 1 2.886751345948129 40.414518843273811 2.000000000000000
392 196 2 4.886751345948129 42.414518843273811 3.000000000000000
393 197 1 2.886751345948129 40.414518843273811 4.000000000000000
394 197 2 4.886751345948129 42.414518843273811 5.000000000000000
395 198 1 2.886751345948129 40.414518843273811 6.000000000000000
396 198 2 4.886751345948129 42.414518843273811 7.000000000000000
397 199 1 2.886751345948129 40.414518843273811 8.000000000000000
398 199 2 4.886751345948129 42.414518843273811 9.000000000000000
399 200 1 2.886751345948129 40.414518843273811 10.000000000000000
400 200 2 4.886751345948129 42.414518843273811 11.000000000000000
401 201 1 2.886751345948129 43.301270189221938 2.000000000000000
402 201 2 4.886751345948129 45.301270189221938 3.000000000000000
403 202 1 2.886751345948129 43.301270189221938 4.000000000000000
404 202 2 4.886751345948129 45.301270189221938 5.000000000000000
405 203 1 2.886751345948129 43.301270189221938 6.000000000000000
406 203 2 4.886751345948129 45.301270189221938 7.000000000000000
407 204 1 2.886751345948129 43.301270189221938 8.000000000000000
408 204 2 4.886751345948129 45.301270189221938 9.000000000000000
409 205 1 2.886751345948129 43.301270189221938 10.000000000000000
410 205 2 4.886751345948129 45.301270189221938 11.000000000000000
411 206 1 2.886751345948129 46.188021535170066 2.000000000000000
412 206 2 4.886751345948129 48.188021535170066 3.000000000000000
413 207 1 2.886751345948129 46.188021535170066 4.000000000000000
414 207 2 4.886751345948129 48.188021535170066 5.000000000000000
415 208 1 2.886751345948129 46.188021535170066 6.000000000000000
416 208 2 4.886751345948129 48.188021535170066 7.000000000000000
417 209 1 2.886751345948129 46.188021535170066 8.000000000000000
418 209 2 4.886751345948129 48.188021535170066 9.000000000000000
419 210 1 2.886751345948129 46.188021535170066 10.000000000000000
420 210 2 4.886751345948129 48.188021535170066 11.000000000000000
421 211 1 2.886751345948129 49.074772881118193 2.000000000000000
422 211 2 4.886751345948129 51.074772881118193 3.000000000000000
423 212 1 2.886751345948129 49.074772881118193 4.000000000000000
424 212 2 4.886751345948129 51.074772881118193 5.000000000000000
425 213 1 2.886751345948129 49.074772881118193 6.000000000000000
426 213 2 4.886751345948129 51.074772881118193 7.000000000000000
427 214 1 2.886751345948129 49.074772881118193 8.000000000000000
428 214 2 4.886751345948129 51.074772881118193 9.000000000000000
429 215 1 2.886751345948129 49.074772881118193 10.000000000000000
430 215 2 4.886751345948129 51.074772881118193 11.000000000000000
431 216 1 2.886751345948129 51.961524227066320 2.000000000000000
432 216 2 4.886751345948129 53.961524227066320 3.000000000000000
433 217 1 2.886751345948129 51.961524227066320 4.000000000000000
434 217 2 4.886751345948129 53.961524227066320 5.000000000000000
435 218 1 2.886751345948129 51.961524227066320 6.000000000000000
436 218 2 4.886751345948129 53.961524227066320 7.000000000000000
437 219 1 2.886751345948129 51.961524227066320 8.000000000000000
438 219 2 4.886751345948129 53.961524227066320 9.000000000000000
439 220 1 2.886751345948129 51.961524227066320 10.000000000000000
440 220 2 4.886751345948129 53.961524227066320 11.000000000000000
441 221 1 2.886751345948129 54.848275573014455 2.000000000000000
442 221 2 4.886751345948129 56.848275573014455 3.000000000000000
443 222 1 2.886751345948129 54.848275573014455 4.000000000000000
444 222 2 4.886751345948129 56.848275573014455 5.000000000000000
445 223 1 2.886751345948129 54.848275573014455 6.000000000000000
446 223 2 4.886751345948129 56.848275573014455 7.000000000000000
447 224 1 2.886751345948129 54.848275573014455 8.000000000000000
448 224 2 4.886751345948129 56.848275573014455 9.000000000000000
449 225 1 2.886751345948129 54.848275573014455 10.000000000000000
450 225 2 4.886751345948129 56.848275573014455 11.000000000000000
451 226 1 2.886751345948129 57.735026918962582 2.000000000000000
452 226 2 4.886751345948129 59.735026918962582 3.000000000000000
453 227 1 2.886751345948129 57.735026918962582 4.000000000000000
454 227 2 4.886751345948129 59.735026918962582 5.000000000000000
455 228 1 2.886751345948129 57.735026918962582 6.000000000000000
456 228 2 4.886751345948129 59.735026918962582 7.000000000000000
457 229 1 2.886751345948129 57.735026918962582 8.000000000000000
458 229 2 4.886751345948129 59.735026918962582 9.000000000000000
459 230 1 2.886751345948129 57.735026918962582 10.000000000000000
460 230 2 4.886751345948129 59.735026918962582 11.000000000000000
461 231 1 2.886751345948129 60.621778264910709 2.000000000000000
462 231 2 4.886751345948129 62.621778264910709 3.000000000000000
463 232 1 2.886751345948129 60.621778264910709 4.000000000000000