ITEM: TIMESTEP
201960
ITEM: NUMBER OF ENTRIES
8367
ITEM: BOX BOUNDS pp pp ff
0.0000000000000000e+00 5.1031036000000000e+01
0.0000000000000000e+00 5.1031036000000000e+01
-5.0000000000000000e-01 1.2500000000000000e+01
ITEM: ENTRIES index c_1[1] c_1[2] c_1[3]
1 2335 5379 2 
2 3086 3950 3 
3 3086 3085 1 
4 2336 454 3 
5 2336 2335 1 
6 3041 4525 2 
7 600 1562 3 
8 600 599 1 
9 670 600 3 
10 670 669 1 
11 1562 670 3 
12 1562 1561 1 
13 4419 4420 1 
14 2039 2040 1 
15 2039 4419 2 
16 5179 5180 1 
17 5179 5931 2 
18 1054 1053 1 
19 5180 1054 3 
20 3728 4526 3 
21 3728 3727 1 
22 4270 4269 1 
23 547 759 2 
24 2977 2978 1 
25 2977 4903 2 
26 5718 5717 1 
27 5770 5718 3 
28 3727 6191 2 
29 4668 414 3 
30 4668 4667 1 
31 414 2806 3 
32 414 413 1 
33 2806 4668 3 
34 2806 2805 1 
35 5306 5860 3 
36 5306 1836 3 
37 5306 5305 1 
38 1836 2864 3 
39 1836 1835 1 
40 4956 4016 3 
41 4016 4015 1 
42 929 2141 2 
43 331 685 2 
44 4120 4119 1 
45 3986 4310 3 
46 3986 4120 3 
47 618 3986 3 
48 618 4310 3 
49 618 4120 3 
50 4310 4120 3 
51 2142 388 3 
52 2142 2141 1 
53 1201 4923 2 
54 4462 3086 3 
55 4462 4461 1 
56 3950 4462 3 
57 3950 3949 1 
58 5012 2336 3 
59 5012 5011 1 
60 599 1323 2 
61 454 5012 3 
62 454 453 1 
63 736 1324 3 
64 736 735 1 
65 5539 5540 1 
66 362 3728 3 
67 362 361 1 
68 4526 362 3 
69 4526 4525 1 
70 158 3728 3 
71 158 157 1 
72 158 362 3 
73 158 4526 3 
74 759 760 1 
75 361 5539 2 
76 760 6202 3 
77 5769 5770 1 
78 2857 5769 2 
79 2147 2389 2 
80 1339 4765 2 
81 39 1441 2 
82 499 500 1 
83 499 2863 2 
84 4667 5463 2 
85 5626 5625 1 
86 3998 5626 3 
87 3023 4015 2 
88 617 618 1 
89 617 1077 2 
90 5094 5462 3 
91 5094 5093 1 
92 15 1411 2 
93 3161 4551 2 
94 466 4438 3 
95 466 465 1 
96 3128 466 3 
97 3128 3127 1 
98 1324 228 3 
99 1324 1323 1 
100 228 736 3 
101 228 227 1 
102 3188 1092 3 
103 3188 3187 1 
104 1340 4766 3 
105 1340 3188 3 
106 1340 1339 1 
107 1092 1340 3 
108 1092 1091 1 
109 4766 3188 3 
110 4766 1092 3 
111 4766 4765 1 
112 4392 1098 3 
113 4392 4391 1 
114 4392 5670 3 
115 1098 5464 3 
116 1098 1097 1 
117 1098 5670 3 
118 1490 1489 1 
119 500 1490 3 
120 500 5300 3 
121 5464 4392 3 
122 5464 5463 1 
123 4943 4944 1 
124 3787 4943 2 
125 2130 606 3 
126 2130 2129 1 
127 2130 3708 3 
128 606 4388 3 
129 606 605 1 
130 606 3708 3 
131 4388 2130 3 
132 4388 4387 1 
133 3708 4388 3 
134 3708 3707 1 
135 2984 2983 1 
136 2984 5670 3 
137 4944 3788 3 
138 4944 5300 3 
139 5300 5464 3 
140 3788 3787 1 
141 5669 5670 1 
142 3695 6289 2 
143 6289 6290 1 
144 5057 1937 2 
145 3108 4416 3 
146 3108 3107 1 
147 4416 4730 3 
148 4416 4415 1 
149 4730 3108 3 
150 4730 4729 1 
151 2851 3687 2 
152 23 829 2 
153 1822 4882 3 
154 1822 1821 1 
155 3570 1822 3 
156 3570 3569 1 
157 4882 3570 3 
158 4882 4881 1 
159 3569 5315 2 
160 3444 4490 3 
161 3444 3443 1 
162 5316 5315 1 
163 467 2449 2 
164 5396 5395 1 
165 6204 5396 3 
166 5634 5316 3 
167 4552 4124 3 
168 4552 4551 1 
169 3880 4124 3 
170 3880 3879 1 
171 3880 4552 3 
172 3880 5724 3 
173 5724 4552 3 
174 5724 5723 1 
175 4124 5724 3 
176 4124 4123 1 
177 465 4847 2 
178 707 3931 2 
179 6025 6026 1 
180 3671 6025 2 
181 1668 2362 3 
182 1668 1667 1 
183 2362 1584 3 
184 2362 2361 1 
185 4088 596 3 
186 4088 4087 1 
187 3316 2502 3 
188 3316 3315 1 
189 3316 4088 3 
190 2361 5519 2 
191 1667 4563 2 
192 1938 6180 3 
193 1938 1937 1 
194 2502 4088 3 
195 2502 2501 1 
196 596 2502 3 
197 596 595 1 
198 596 3316 3 
199 6180 5058 3 
200 6180 6179 1 
201 5058 1938 3 
202 5058 5057 1 
203 3297 3975 2 
204 3122 3121 1 
205 4506 3122 3 
206 4335 4336 1 
207 5242 4368 3 
208 5242 5241 1 
209 1006 5242 3 
210 1006 1005 1 
211 4368 1006 3 
212 4368 4367 1 
213 3153 5093 2 
214 2871 2872 1 
215 4211 4212 1 
216 1205 5831 2 
217 5831 5832 1 
218 1401 4087 2 
219 2885 6223 2 
220 1584 1668 3 
221 1584 1583 1 
222 411 1771 2 
223 5789 6179 2 
224 4861 4862 1 
225 2838 3840 3 
226 2838 2837 1 
227 2838 4244 3 
228 3736 372 3 
229 3736 3735 1 
230 2460 102 3 
231 2460 2459 1 
232 2460 3736 3 
233 372 102 3 
234 372 371 1 
235 372 2460 3 
236 102 3736 3 
237 102 101 1 
238 101 5599 2 
239 4633 4634 1 
240 5153 3557 2 
241 2195 2196 1 
242 965 2195 2 
243 2886 1376 3 
244 2886 2885 1 
245 6146 5238 3 
246 6146 6145 1 
247 5948 5238 3 
248 5948 5947 1 
249 5948 6146 3 
250 5238 5644 3 
251 5238 5237 1 
252 5644 5948 3 
253 5644 5643 1 
254 5644 6146 3 
255 5154 3558 3 
256 5154 5210 3 
257 5154 5153 1 
258 3558 5210 3 
259 3558 966 3 
260 3558 3557 1 
261 966 5154 3 
262 966 965 1 
263 5708 1144 3 
264 5708 5707 1 
265 5210 966 3 
266 5210 5209 1 
267 4702 5708 3 
268 4702 4701 1 
269 1144 4702 3 
270 1144 1143 1 
271 4496 2370 3 
272 4496 4495 1 
273 2370 2369 1 
274 182 4496 3 
275 182 181 1 
276 182 690 3 
277 182 2370 3 
278 690 4496 3 
279 690 689 1 
280 690 2370 3 
281 1040 1138 3 
282 1040 1039 1 
283 1040 1906 3 
284 6263 6264 1 
285 3406 3670 3 
286 3406 3405 1 
287 2204 3406 3 
288 2204 2203 1 
289 2204 3670 3 
290 2204 5172 3 
291 3670 5172 3 
292 3670 3669 1 
293 5172 3406 3 
294 5172 5171 1 
295 739 4289 2 
296 3400 3399 1 
297 3399 6145 2 
298 5768 3400 3 
299 2693 5079 2 
300 4664 2694 3 
301 4664 4663 1 
302 2694 5916 3 
303 2694 2693 1 
304 5916 4664 3 
305 5916 5915 1 
306 1143 5235 2 
307 4495 5273 2 
308 890 5616 3 
309 890 889 1 
310 6317 6318 1 
311 4830 3340 3 
312 4830 4829 1 
313 4512 4830 3 
314 4512 4511 1 
315 4512 5406 3 
316 3340 5406 3 
317 3340 3339 1 
318 3340 4512 3 
319 5406 4830 3 
320 5406 5405 1 
321 449 4829 2 
322 3021 4511 2 
323 1711 1712 1 
324 2101 3677 2 
325 849 4859 2 
326 1860 6186 3 
327 1860 1859 1 
328 1860 5360 3 
329 5360 6186 3 
330 5360 5359 1 
331 3852 1860 3 
332 3852 3851 1 
333 3852 5360 3 
334 2102 4860 3 
335 2102 2101 1 
336 2102 6244 3 
337 1259 1260 1 
338 2375 2376 1 
339 2570 3972 3 
340 1704 1703 1 
341 1704 2376 3 
342 2376 3158 3 
343 2569 2570 1 
344 2569 5999 2 
345 223 4151 2 
346 326 4802 3 
347 326 325 1 
348 326 3974 3 
349 6277 6278 1 
350 239 3973 2 
351 2606 4886 3 
352 2606 2605 1 
353 4156 4155 1 
354 1252 4156 3 
355 939 5857 2 
356 940 4940 3 
357 940 939 1 
358 940 3598 3 
359 940 6136 3 
360 338 1612 3 
361 338 337 1 
362 338 2824 3 
363 1612 5636 3 
364 1612 1611 1 
365 1612 2032 3 
366 354 2824 3 
367 354 2032 3 
368 354 5636 3 
369 5636 338 3 
370 5636 5635 1 
371 6136 3598 3 
372 6136 6135 1 
373 850 2080 3 
374 850 849 1 
375 3038 5498 3 
376 3038 3037 1 
377 286 3038 3 
378 286 285 1 
379 5498 286 3 
380 5498 5497 1 
381 6186 3852 3 
382 6186 6185 1 
383 241 3851 2 
384 106 3774 3 
385 106 105 1 
386 224 326 3 
387 224 223 1 
388 4802 224 3 
389 4802 4801 1 
390 967 4099 2 
391 3974 224 3 
392 3974 3973 1 
393 3974 4802 3 
394 240 3020 3 
395 240 239 1 
396 240 4704 3 
397 5745 6143 2 
398 5347 153 2 
399 3068 5214 3 
400 3068 3067 1 
401 126 3068 3 
402 126 125 1 
403 5214 126 3 
404 5214 5213 1 
405 5858 4206 3 
406 5858 5857 1 
407 2032 2824 3 
408 1611 5635 2 
409 5088 3544 3 
410 5088 5087 1 
411 2440 5088 3 
412 2440 2439 1 
413 3544 2440 3 
414 3544 3543 1 
415 242 106 3 
416 242 241 1 
417 242 3774 3 
418 242 264 3 
419 264 106 3 
420 264 263 1 
421 3774 264 3 
422 3774 3773 1 
423 4761 4762 1 
424 4761 5521 2 
425 6307 6308 1 
426 5685 5686 1 
427 1461 511 2 
428 1462 512 3 
429 1462 1461 1 
430 1462 2240 3 
431 3404 1462 3 
432 3404 3403 1 
433 2240 3404 3 
434 512 3404 3 
435 512 511 1 
436 512 2240 3 
437 2403 3495 2 
438 4100 4099 1 
439 2678 1832 3 
440 2678 2677 1 
441 1832 1118 3 
442 1832 1831 1 
443 1118 2678 3 
444 1118 1117 1 
445 3709 3710 1 
446 869 3709 2 
447 5078 1786 3 
448 6161 6162 1 
449 1786 1785 1 
450 107 1117 2 
451 870 20 3 
452 870 869 1 
453 870 5618 3 
454 20 3680 3 
455 20 19 1 
456 20 5618 3 
457 5618 3680 3 
458 5618 5617 1 
459 3680 870 3 
460 3680 3679 1 
461 5077 5853 2 
462 5077 5078 1 
463 439 4669 2 
464 322 730 3 
465 322 321 1 
466 730 1330 3 
467 730 729 1 
468 1330 322 3 
469 1330 1329 1 
470 729 5087 2 
471 3757 3758 1 
472 1183 1184 1 
473 1183 3757 2 
474 3197 3198 1 
475 3197 3403 2 
476 6061 6062 1 
477 5983 6061 2 
478 3124 3350 3 
479 3124 3123 1 
480 508 3124 3 
481 508 507 1 
482 3350 508 3 
483 3350 3349 1 
484 2687 2688 1 
485 1647 2719 2 
486 2425 2426 1 
487 2425 3201 2 
488 6162 2160 3 
489 2160 2159 1 
490 1776 1648 3 
491 4158 1292 3 
492 4158 4157 1 
493 2650 4158 3 
494 2650 2649 1 
495 2650 5246 3 
496 1292 5246 3 
497 1292 1291 1 
498 1292 2650 3 
499 5246 4158 3 
500 5246 5245 1 
501 3746 3745 1 
502 746 3746 3 
503 3912 6096 3 
504 3912 3911 1 
505 3912 5104 3 
506 3275 3276 1 
507 5674 5632 3 
508 5632 5631 1 
509 3504 3503 1 
510 4932 3504 3 
511 5673 5674 1 
512 5137 5673 2 
513 3357 3358 1 
514 3357 5309 2 
515 5173 6207 2 
516 277 5297 2 
517 5297 5298 1 
518 1775 1776 1 
519 1449 1775 2 
520 3743 5523 2 
521 4328 2278 3 
522 4328 6030 3 
523 782 6030 3 
524 782 3080 3 
525 782 4328 3 
526 4157 4713 2 
527 3193 5661 2 
528 290 1516 3 
529 290 289 1 
530 290 612 3 
531 4877 4878 1 
532 2485 4877 2 
533 1516 3936 3 
534 1516 1515 1 
535 1314 4138 3 
536 1314 4172 3 
537 4137 4171 2 
538 4171 4172 1 
539 3770 124 3 
540 3770 3769 1 
541 124 1858 3 
542 124 123 1 
543 124 5016 3 
544 4466 684 3 
545 4466 4465 1 
546 176 3304 3 
547 176 175 1 
548 176 5174 3 
549 176 5346 3 
550 3304 5346 3 
551 3304 3303 1 
552 5346 5174 3 
553 5346 5345 1 
554 5174 3304 3 
555 5174 5173 1 
556 278 277 1 
557 5526 278 3 
558 3353 4223 2 
559 2131 2132 1 
560 2131 5939 2 
561 1179 1180 1 
562 69 861 2 
563 233 1179 2 
564 6299 6300 1 
565 4430 6032 3 
566 4430 4429 1 
567 955 5771 2 
568 4327 4328 1 
569 2879 4327 2 
570 4483 4484 1 
571 4483 6169 2 
572 2919 4913 2 
573 2919 2920 1 
574 2550 292 3 
575 5706 3268 3 
576 3268 3267 1 
577 757 758 1 
578 757 4773 2 
579 452 1298 3 
580 452 451 1 
581 452 4220 3 
582 4138 4137 1 
583 4172 4138 3 
584 4172 5016 3 
585 293 294 1 
586 1858 3770 3 
587 1858 1857 1 
588 1858 5016 3 
589 123 933 2 
590 1100 1099 1 
591 6142 1100 3 
592 175 1561 2 
593 1484 234 3 
594 234 233 1 
595 3000 180 3 
596 3000 2999 1 
597 4685 4805 2 
598 451 1297 2 
599 2441 539 2 
600 5828 2526 3 
601 5828 5827 1 
602 2526 3464 3 
603 2526 2525 1 
604 3464 5828 3 
605 3464 3463 1 
606 930 3336 3 
607 930 929 1 
608 930 4894 3 
609 1030 930 3 
610 1030 1029 1 
611 1030 4894 3 
612 1030 3336 3 
613 6141 6142 1 
614 6325 6326 1 
615 387 5263 2 
616 3571 3572 1 
617 301 4199 2 
618 1663 4461 2 
619 1439 3265 2 
620 3395 3396 1 
621 3227 3395 2 
622 3848 4334 3 
623 3848 3847 1 
624 5802 4618 3 
625 5802 5801 1 
626 4618 1268 3 
627 4618 4617 1 
628 1268 5802 3 
629 1268 1267 1 
630 5612 3848 3 
631 5612 5611 1 
632 4334 5612 3 
633 4334 4333 1 
634 4334 4706 3 
635 49 2313 2 
636 302 4976 3 
637 302 301 1 
638 3266 302 3 
639 3266 3265 1 
640 4976 3266 3 
641 4976 4975 1 
642 4420 5568 3 
643 2040 1364 3 
644 2040 3396 3 
645 1724 2662 3 
646 1724 1723 1 
647 3396 5568 3 
648 1364 1363 1 
649 1364 3396 3 
650 1364 5568 3 
651 196 1724 3 
652 196 195 1 
653 196 4420 3 
654 220 4420 3 
655 220 2040 3 
656 220 2662 3 
657 2662 196 3 
658 2662 2661 1 
659 4557 5551 2 
660 6052 3000 3 
661 6052 6051 1 
662 548 180 3 
663 548 547 1 
664 548 3000 3 
665 548 6052 3 
666 1664 4752 3 
667 1664 1663 1 
668 1664 4202 3 
669 50 1664 3 
670 50 49 1 
671 50 4202 3 
672 1075 5277 2 
673 2978 4270 3 
674 5567 5568 1 
675 515 2993 2 
676 5187 5567 2 
677 1167 4479 2 
678 4480 806 3 
679 4480 4479 1 
680 806 2148 3 
681 806 805 1 
682 4904 5630 3 
683 4904 4903 1 
684 2564 2563 1 
685 5162 2564 3 
686 6192 3150 3 
687 6192 6191 1 
688 2024 6192 3 
689 2024 2023 1 
690 4365 2155 2 
691 1263 1835 2 
692 805 4613 2 
693 2864 5306 3 
694 2864 5860 3 
695 2864 2863 1 
696 818 817 1 
697 413 2889 2 
698 5860 1836 3 
699 5860 5859 1 
700 2173 3257 2 
701 4528 818 3 
702 3001 4965 2 
703 3125 5413 2 
704 731 3767 2 
705 4686 2470 3 
706 4686 4685 1 
707 4354 4686 3 
708 4354 4353 1 
709 2470 4354 3 
710 2470 2469 1 
711 3828 2470 3 
712 3828 3827 1 
713 3828 4686 3 
714 3828 4354 3 
715 188 888 3 
716 188 187 1 
717 888 1500 3 
718 888 887 1 
719 1500 188 3 
720 1500 1499 1 
721 732 318 3 
722 732 731 1 
723 3126 732 3 
724 3126 3125 1 
725 318 3126 3 
726 318 317 1 
727 65 187 2 
728 856 2754 3 
729 856 855 1 
730 856 2428 3 
731 856 4308 3 
732 2754 4308 3 
733 2754 2753 1 
734 2428 2754 3 
735 2428 2427 1 
736 4308 2428 3 
737 4308 4307 1 
738 2423 4577 2 
739 6134 5730 3 
740 6134 6133 1 
741 4723 4724 1 
742 3335 4723 2 
743 4567 4568 1 
744 3861 3862 1 
745 3861 4567 2 
746 2189 5911 2 
747 1372 2956 3 
748 1372 1371 1 
749 156 610 3 
750 156 155 1 
751 156 2190 3 
752 2190 2648 3 
753 2190 2189 1 
754 610 2648 3 
755 610 609 1 
756 610 2190 3 
757 2648 156 3 
758 2648 2647 1 
759 3738 3737 1 
760 3738 3862 3 
761 3862 4568 3 
762 5436 5435 1 
763 4568 5436 3 
764 1580 5436 3 
765 1580 3010 3 
766 1580 3862 3 
767 3010 5436 3 
768 3010 4568 3 
769 2744 3738 3 
770 6058 4798 3 
771 6058 6057 1 
772 686 632 3 
773 686 685 1 
774 686 6058 3 
775 1705 3985 2 
776 1705 1706 1 
777 3985 3986 1 
778 527 609 2 
779 527 528 1 
780 4119 6057 2 
781 229 5321 2 
782 1774 2142 3 
783 1774 1773 1 
784 388 1774 3 
785 388 387 1 
786 4584 4026 3 
787 4584 4583 1 
788 3956 768 3 
789 3956 3955 1 
790 3211 4309 2 
791 4309 4310 1 
792 3829 6177 2 
793 3829 3830 1 
794 4026 5286 3 
795 4026 4025 1 
796 16 4456 3 
797 16 15 1 
798 846 16 3 
799 846 845 1 
800 5286 4584 3 
801 5286 5285 1 
802 1412 4026 3 
803 1412 1411 1 
804 1412 5286 3 
805 1412 4584 3 
806 4456 846 3 
807 4456 4455 1 
808 1202 5562 3 
809 1202 1201 1 
810 5514 488 3 
811 5514 5513 1 
812 5264 5514 3 
813 5264 5263 1 
814 488 5264 3 
815 488 487 1 
816 4924 5380 3 
817 4924 4923 1 
818 1440 826 3 
819 1440 1439 1 
820 4200 1440 3 
821 4200 4199 1 
822 448 1202 3 
823 448 447 1 
824 2314 4924 3 
825 2314 2313 1 
826 826 4200 3 
827 826 825 1 
828 5380 2314 3 
829 5380 5379 1 
830 2667 3519 2 
831 2273 3961 2 
832 857 5561 2 
833 207 5011 2 
834 669 5801 2 
835 3042 5852 3 
836 3042 3041 1 
837 5852 208 3 
838 5852 5851 1 
839 453 3127 2 
840 3497 4975 2 
841 2087 4023 2 
842 208 3042 3 
843 208 207 1 
844 735 1127 2 
845 5922 1942 3 
846 5922 5921 1 
847 1942 3520 3 
848 1942 1941 1 
849 1942 2438 3 
850 1128 118 3 
851 1128 1127 1 
852 1128 2974 3 
853 1445 3341 2 
854 6202 6201 1 
855 1723 5755 2 
856 516 3342 3 
857 516 515 1 
858 516 5314 3 
859 3342 1148 3 
860 3342 3341 1 
861 1148 516 3 
862 1148 1147 1 
863 1148 5314 3 
864 5314 3342 3 
865 5314 5313 1 
866 4588 6216 3 
867 4588 4587 1 
868 4588 5252 3 
869 5252 6216 3 
870 5252 5251 1 
871 5641 5642 1 
872 4397 5641 2 
873 5313 5417 2 
874 2791 4133 2 
875 157 1535 2 
876 2148 1442 3 
877 2148 2147 1 
878 2148 4480 3 
879 1442 806 3 
880 1442 1441 1 
881 1442 4480 3 
882 871 4531 2 
883 2893 6215 2 
884 1804 2256 3 
885 1456 1455 1 
886 5781 5782 1 
887 2983 5781 2 
888 5896 1570 3 
889 5896 5895 1 
890 225 3017 2 
891 1570 1166 3 
892 1570 1569 1 
893 1570 2390 3 
894 2390 1166 3 
895 2390 2389 1 
896 2390 5896 3 
897 1166 5896 3 
898 1166 1165 1 
899 5502 3472 3 
900 5502 5501 1 
901 3530 4176 3 
902 3530 3529 1 
903 3530 5502 3 
904 3472 4176 3 
905 3472 3471 1 
906 3472 3530 3 
907 4176 5502 3 
908 4176 4175 1 
909 2941 2942 1 
910 2941 5409 2 
911 3059 4969 2 
912 625 626 1 
913 625 2599 2 
914 3471 5933 2 
915 5933 5934 1 
916 908 2600 3 
917 908 907 1 
918 1470 908 3 
919 1470 1469 1 
920 1470 3060 3 
921 1470 2600 3 
922 2600 3060 3 
923 2600 2599 1 
924 3060 908 3 
925 3060 3059 1 
926 6267 6268 1 
927 1469 3325 2 
928 405 4415 2 
929 2424 3978 3 
930 2424 2423 1 
931 1342 3978 3 
932 1342 1341 1 
933 1342 2424 3 
934 1342 2578 3 
935 2578 2424 3 
936 2578 2577 1 
937 3978 2578 3 
938 3978 3977 1 
939 3997 3998 1 
940 3997 5625 2 
941 2743 2744 1 
942 2743 6047 2 
943 4955 4956 1 
944 2912 3434 3 
945 2912 2911 1 
946 597 1579 2 
947 2882 2912 3 
948 2882 2881 1 
949 1961 4405 2 
950 769 4955 2 
951 2647 5441 2 
952 1962 4050 3 
953 1962 1961 1 
954 1579 1580 1 
955 3639 5001 2 
956 1773 5127 2 
957 532 531 1 
958 628 4930 3 
959 628 627 1 
960 628 5094 3 
961 628 5462 3 
962 663 4191 2 
963 1042 3444 3 
964 1042 1041 1 
965 1042 4490 3 
966 2519 5207 2 
967 4930 5094 3 
968 4930 4929 1 
969 664 663 1 
970 1212 664 3 
971 1004 2420 3 
972 1004 1003 1 
973 1004 3878 3 
974 3878 2420 3 
975 3878 3877 1 
976 568 1004 3 
977 568 567 1 
978 568 3878 3 
979 2420 568 3 
980 2420 2419 1 
981 5462 4930 3 
982 5462 5461 1 
983 1041 3083 2 
984 4929 5633 2 
985 5633 5634 1 
986 5562 448 3 
987 5562 5561 1 
988 4592 1038 3 
989 4592 4591 1 
990 2742 4592 3 
991 2742 2741 1 
992 1038 2742 3 
993 1038 1037 1 
994 3877 5123 2 
995 3162 988 3 
996 3162 3161 1 
997 988 5384 3 
998 988 987 1 
999 5384 3162 3 
1000 5384 5383 1 
1001 4438 3128 3 
1002 4438 4437 1 
1003 2274 3110 3 
1004 2274 2273 1 
1005 2274 4804 3 
1006 2274 5388 3 
1007 4804 3110 3 
1008 4804 4803 1 
1009 6174 5800 3 
1010 6174 6173 1 
1011 4253 4617 2 
1012 4254 3136 3 
1013 4254 4253 1 
1014 4254 6116 3 
1015 1627 3135 2 
1016 5388 4804 3 
1017 5388 5387 1 
1018 4538 4254 3 
1019 4538 4537 1 
1020 4538 6116 3 
1021 6279 6280 1 
1022 3110 5388 3 
1023 3110 3109 1 
1024 2438 3520 3 
1025 2438 2437 1 
1026 2438 5922 3 
1027 3520 5922 3 
1028 3520 3519 1 
1029 227 5387 2 
1030 2437 3897 2 
1031 4437 4587 2 
1032 3318 4424 3 
1033 3318 3317 1 
1034 2446 1346 3 
1035 2446 2445 1 
1036 2446 3318 3 
1037 4803 5919 2 
1038 6216 3498 3 
1039 6216 6215 1 
1040 4424 2446 3 
1041 4424 4423 1 
1042 1346 4424 3 
1043 1346 1345 1 
1044 1346 3318 3 
1045 1147 6083 2 
1046 1676 5962 3 
1047 1676 1675 1 
1048 3898 1676 3 
1049 3898 3897 1 
1050 1436 3898 3 
1051 1436 1435 1 
1052 1436 5962 3 
1053 1436 1676 3 
1054 5962 3898 3 
1055 5962 5961 1 
1056 232 5712 3 
1057 232 231 1 
1058 232 912 3 
1059 231 4785 2 
1060 5712 2858 3 
1061 5712 5711 1 
1062 2858 232 3 
1063 2858 2857 1 
1064 912 2858 3 
1065 912 911 1 
1066 912 5712 3 
1067 872 708 3 
1068 872 871 1 
1069 708 250 3 
1070 708 707 1 
1071 250 872 3 
1072 250 249 1 
1073 401 6201 2 
1074 4398 4397 1 
1075 5642 4398 3 
1076 802 4398 3 
1077 802 3740 3 
1078 802 5642 3 
1079 605 4245 2 
1080 3740 5642 3 
1081 3740 4398 3 
1082 1435 1575 2 
1083 5580 4330 3 
1084 5580 5579 1 
1085 5704 5580 3 
1086 5704 5703 1 
1087 1110 3402 3 
1088 1110 1109 1 
1089 1110 3676 3 
1090 248 247 1 
1091 248 2256 3 
1092 248 1804 3 
1093 3676 3402 3 
1094 3676 3675 1 
1095 40 39 1 
1096 1569 3187 2 
1097 1536 5704 3 
1098 1536 1535 1 
1099 1536 4330 3 
1100 1536 5580 3 
1101 4330 5704 3 
1102 4330 4329 1 
1103 4387 5295 2 
1104 1455 3293 2 
1105 3293 3294 1 
1106 249 1087 2 
1107 1337 1338 1 
1108 1337 1489 2 
1109 1097 4179 2 
1110 1659 5703 2 
1111 2129 3903 2 
1112 1807 3707 2 
1113 1656 40 3 
1114 247 1107 2 
1115 1107 1108 1 
1116 1803 1804 1 
1117 1803 2157 2 
1118 2942 4944 3 
1119 2942 3788 3 
1120 2942 2984 3 
1121 626 5728 3 
1122 626 3696 3 
1123 626 5520 3 
1124 569 570 1 
1125 569 1655 2 
1126 1655 1656 1 
1127 5299 5300 1 
1128 5728 3696 3 
1129 5728 5727 1 
1130 3696 5520 3 
1131 3696 3695 1 
1132 5520 5728 3 
1133 5520 5519 1 
1134 3103 4747 2 
1135 2050 4564 3 
1136 2050 2049 1 
1137 907 5679 2 
1138 4222 3428 3 
1139 4222 4221 1 
1140 1486 4222 3 
1141 1486 1485 1 
1142 3428 1486 3 
1143 3428 3427 1 
1144 570 5410 3 
1145 5410 5409 1 
1146 3617 5727 2 
1147 3104 3148 3 
1148 3104 3103 1 
1149 2091 1425 2 
1150 2086 3104 3 
1151 2086 2085 1 
1152 3148 2086 3 
1153 3148 3147 1 
1154 6269 6270 1 
1155 4997 4998 1 
1156 4997 6269 2 
1157 273 2501 2 
1158 3427 5377 2 
1159 5377 5378 1 
1160 3618 100 3 
1161 3618 3617 1 
1162 3618 4758 3 
1163 2264 5846 3 
1164 2264 4114 3 
1165 274 273 1 
1166 4998 5846 3 
1167 5846 5845 1 
1168 4114 4998 3 
1169 100 5590 3 
1170 100 99 1 
1171 100 4758 3 
1172 2991 3029 2 
1173 2085 3243 2 
1174 2810 2092 3 
1175 2810 2809 1 
1176 3492 2852 3 
1177 3492 3491 1 
1178 3492 6314 3 
1179 5030 3492 3 
1180 5030 5029 1 
1181 5030 6314 3 
1182 2852 5030 3 
1183 2852 2851 1 
1184 6314 2852 3 
1185 6314 6313 1 
1186 3030 3326 3 
1187 3030 3029 1 
1188 1341 3977 2 
1189 1465 6131 2 
1190 3024 406 3 
1191 3024 3023 1 
1192 3024 3688 3 
1193 4186 3024 3 
1194 4186 4185 1 
1195 406 4186 3 
1196 406 405 1 
1197 3688 406 3 
1198 3688 3687 1 
1199 3688 4186 3 
1200 4467 4729 2 
1201 4468 3120 3 
1202 4468 4467 1 
1203 3120 1050 3 
1204 3120 3119 1 
1205 504 3120 3 
1206 504 503 1 
1207 504 1050 3 
1208 504 4468 3 
1209 1050 4468 3 
1210 1050 1049 1 
1211 4991 6097 2 
1212 1725 1731 2 
1213 3434 2882 3 
1214 3434 3433 1 
1215 1475 1509 2 
1216 244 4406 3 
1217 244 243 1 
1218 24 4982 3 
1219 24 23 1 
1220 24 4406 3 
1221 24 244 3 
1222 4982 244 3 
1223 4982 4981 1 
1224 4406 4982 3 
1225 4406 4405 1 
1226 271 272 1 
1227 271 621 2 
1228 4034 296 3 
1229 296 295 1 
1230 533 5807 2 
1231 5254 4192 3 
1232 5254 5253 1 
1233 3468 532 3 
1234 2528 4838 3 
1235 2528 2527 1 
1236 4192 4992 3 
1237 4192 4191 1 
1238 4838 1258 3 
1239 4838 4837 1 
1240 770 4192 3 
1241 770 769 1 
1242 770 5254 3 
1243 4992 770 3 
1244 4992 4991 1 
1245 4992 5254 3 
1246 1370 3858 3 
1247 1370 1369 1 
1248 1258 2528 3 
1249 1258 1257 1 
1250 5442 574 3 
1251 5442 5441 1 
1252 4934 574 3 
1253 4934 4933 1 
1254 4934 5442 3 
1255 4934 5370 3 
1256 4520 5892 3 
1257 3858 5892 3 
1258 3858 3857 1 
1259 3858 4520 3 
1260 4018 5656 3 
1261 4018 4017 1 
1262 1821 3753 2 
1263 5892 1370 3 
1264 5892 5891 1 
1265 410 4520 3 
1266 410 1370 3 
1267 410 3468 3 
1268 5656 6088 3 
1269 5656 5655 1 
1270 6088 4018 3 
1271 6088 6087 1 
1272 6092 1078 3 
1273 6092 6091 1 
1274 5370 5442 3 
1275 5370 5369 1 
1276 574 5370 3 
1277 574 573 1 
1278 1367 4049 2 
1279 4490 468 3 
1280 4490 4489 1 
1281 2692 6092 3 
1282 2692 2691 1 
1283 4837 5731 2 
1284 184 6092 3 
1285 184 183 1 
1286 184 2692 3 
1287 1078 184 3 
1288 1078 1077 1 
1289 1078 2692 3 
1290 4881 5287 2 
1291 627 4933 2 
1292 468 3444 3 
1293 468 467 1 
1294 468 1042 3 
1295 1211 1747 2 
1296 1211 1212 1 
1297 3083 3084 1 
1298 1639 4367 2 
1299 1639 1640 1 
1300 6203 6204 1 
1301 4489 6203 2 
1302 525 987 2 
1303 2668 6174 3 
1304 2668 2667 1 
1305 2668 5124 3 
1306 5124 6174 3 
1307 5124 5123 1 
1308 5124 5800 3 
1309 3084 1432 3 
1310 5800 2668 3 
1311 5800 5799 1 
1312 347 2741 2 
1313 3136 4538 3 
1314 3136 3135 1 
1315 3136 6116 3 
1316 166 165 1 
1317 5101 6173 2 
1318 5920 166 3 
1319 1196 464 3 
1320 1196 1195 1 
1321 1196 4848 3 
1322 1448 1447 1 
1323 1122 4848 3 
1324 1122 1121 1 
1325 1122 1196 3 
1326 5919 5920 1 
1327 4537 4777 2 
1328 1086 2300 3 
1329 1086 1085 1 
1330 1086 4786 3 
1331 4786 1452 3 
1332 4786 4785 1 
1333 2300 1452 3 
1334 2300 2299 1 
1335 2300 4786 3 
1336 2833 3317 2 
1337 6084 5356 3 
1338 6084 6083 1 
1339 4105 4423 2 
1340 1796 5596 3 
1341 1796 1795 1 
1342 1796 1856 3 
1343 5596 722 3 
1344 5596 5595 1 
1345 722 1796 3 
1346 722 721 1 
1347 722 1856 3 
1348 1856 5596 3 
1349 1856 1855 1 
1350 1452 1086 3 
1351 1452 1451 1 
1352 5356 3200 3 
1353 5356 5355 1 
1354 2279 4021 2 
1355 1027 1028 1 
1356 2075 5943 2 
1357 801 802 1 
1358 801 4145 2 
1359 2567 5711 2 
1360 299 300 1 
1361 299 2969 2 
1362 721 1027 2 
1363 3200 6084 3 
1364 3200 3199 1 
1365 2076 6054 3 
1366 2076 2075 1 
1367 6054 3766 3 
1368 6054 6053 1 
1369 3766 2076 3 
1370 3766 3765 1 
1371 5956 4106 3 
1372 5956 5955 1 
1373 2163 5955 2 
1374 4106 2568 3 
1375 4106 4105 1 
1376 2568 5956 3 
1377 2568 2567 1 
1378 2713 2714 1 
1379 2713 5157 2 
1380 4266 6026 3 
1381 6018 6026 3 
1382 1028 3294 3 
1383 1028 3426 3 
1384 4118 3672 3 
1385 4118 6026 3 
1386 4118 4266 3 
1387 3672 3671 1 
1388 3672 4266 3 
1389 3672 6018 3 
1390 3426 6018 3 
1391 2970 2346 3 
1392 2970 2969 1 
1393 300 2346 3 
1394 300 2970 3 
1395 300 1028 3 
1396 1091 5437 2 
1397 3294 3426 3 
1398 2646 2970 3 
1399 2646 2645 1 
1400 2646 3294 3 
1401 2346 2646 3 
1402 2346 2345 1 
1403 792 5438 3 
1404 792 791 1 
1405 5438 4204 3 
1406 5438 5437 1 
1407 3322 792 3 
1408 3322 3321 1 
1409 3322 4204 3 
1410 3322 5438 3 
1411 4117 4118 1 
1412 1067 4117 2 
1413 2657 2931 2 
1414 4204 792 3 
1415 4204 4203 1 
1416 1108 700 3 
1417 2922 3692 3 
1418 2922 2921 1 
1419 700 699 1 
1420 3692 2932 3 
1421 3692 3691 1 
1422 3692 6224 3 
1423 2932 2922 3 
1424 2932 2931 1 
1425 2932 6224 3 
1426 6224 2922 3 
1427 6224 6223 1 
1428 3315 5069 2 
1429 5590 3618 3 
1430 5590 5589 1 
1431 5069 5070 1 
1432 595 2263 2 
1433 4748 4772 3 
1434 4748 4747 1 
1435 4772 1672 3 
1436 4772 4771 1 
1437 27 28 1 
1438 27 4113 2 
1439 2263 2264 1 
1440 113 3691 2 
1441 1672 4748 3 
1442 1672 1671 1 
1443 3088 1672 3 
1444 3088 3087 1 
1445 3088 4748 3 
1446 3088 4772 3 
1447 4035 4323 2 
1448 1869 1870 1 
1449 3952 2992 3 
1450 3952 3951 1 
1451 4113 4114 1 
1452 2992 5790 3 
1453 2992 2991 1 
1454 2992 6122 3 
1455 5790 3952 3 
1456 5790 5789 1 
1457 5790 6122 3 
1458 6122 3952 3 
1459 6122 6121 1 
1460 3794 3793 1 
1461 5096 3794 3 
1462 5459 6121 2 
1463 3047 5927 2 
1464 1971 2809 2 
1465 5927 5928 1 
1466 688 1688 3 
1467 688 687 1 
1468 688 1726 3 
1469 1726 4056 3 
1470 1726 1725 1 
1471 4056 688 3 
1472 4056 4055 1 
1473 4454 3274 3 
1474 4454 4453 1 
1475 3274 6086 3 
1476 3274 3273 1 
1477 6086 4454 3 
1478 6086 6085 1 
1479 1350 960 3 
1480 1350 1349 1 
1481 3824 1788 3 
1482 3824 3823 1 
1483 1416 1350 3 
1484 1416 1415 1 
1485 3298 4574 3 
1486 3298 3297 1 
1487 3298 3824 3 
1488 1788 4574 3 
1489 1788 1787 1 
1490 1788 3298 3 
1491 2357 2358 1 
1492 2357 4229 2 
1493 1688 4056 3 
1494 1688 1687 1 
1495 1688 1726 3 
1496 2310 1918 3 
1497 2310 2309 1 
1498 3369 4735 2 
1499 4735 4736 1 
1500 1349 4505 2 
1501 4505 4506 1 
1502 4574 3824 3 
1503 4574 4573 1 
1504 272 5964 3 
1505 295 1049 2 
1506 371 3273 2 
1507 2161 4573 2 
1508 3823 4335 2 
1509 243 3735 2 
1510 1687 5369 2 
1511 2949 2950 1 
1512 2949 6085 2 
1513 4846 1016 3 
1514 4846 4845 1 
1515 5964 5963 1 
1516 3976 830 3 
1517 3976 3975 1 
1518 830 3106 3 
1519 830 829 1 
1520 830 2770 3 
1521 2770 3976 3 
1522 2770 2769 1 
1523 2770 3106 3 
1524 3106 3976 3 
1525 3106 3105 1 
1526 505 2209 2 
1527 3370 1368 3 
1528 3370 3369 1 
1529 3370 4336 3 
1530 2786 3754 3 
1531 2786 2785 1 
1532 2786 4736 3 
1533 2106 4846 3 
1534 2106 2105 1 
1535 4336 4736 3 
1536 1368 756 3 
1537 1368 1367 1 
1538 1368 4336 3 
1539 3842 4846 3 
1540 754 2786 3 
1541 754 753 1 
1542 754 4736 3 
1543 756 3370 3 
1544 756 755 1 
1545 756 3842 3 
1546 3524 2210 3 
1547 3524 3523 1 
1548 3754 754 3 
1549 3754 3753 1 
1550 3754 3842 3 
1551 1257 2459 2 
1552 1246 788 3 
1553 1246 1245 1 
1554 1246 3154 3 
1555 2162 1246 3 
1556 2162 2161 1 
1557 2162 3154 3 
1558 788 2162 3 
1559 788 787 1 
1560 3154 788 3 
1561 3154 3153 1 
1562 4344 4343 1 
1563 2210 5288 3 
1564 2210 2209 1 
1565 2527 4347 2 
1566 5288 3524 3 
1567 5288 5287 1 
1568 2450 924 3 
1569 2450 2449 1 
1570 924 5600 3 
1571 924 923 1 
1572 5600 2450 3 
1573 5600 5599 1 
1574 1812 924 3 
1575 1812 1811 1 
1576 1812 5600 3 
1577 1812 2450 3 
1578 523 5653 2 
1579 6115 6116 1 
1580 4848 464 3 
1581 4848 4847 1 
1582 4123 5975 2 
1583 3701 6115 2 
1584 2561 5723 2 
1585 464 1122 3 
1586 464 463 1 
1587 526 525 1 
1588 1640 526 3 
1589 644 1658 3 
1590 1227 6023 2 
1591 463 923 2 
1592 59 60 1 
1593 59 165 2 
1594 643 644 1 
1595 643 2871 2 
1596 2872 1448 3 
1597 1447 2763 2 
1598 1265 3759 2 
1599 1658 1657 1 
1600 1121 1739 2 
1601 381 1085 2 
1602 381 382 1 
1603 1021 3651 2 
1604 1795 2295 2 
1605 1794 6054 3 
1606 1794 1793 1 
1607 1794 2076 3 
1608 1794 3766 3 
1609 4146 3046 3 
1610 4146 4145 1 
1611 3932 4146 3 
1612 3932 3931 1 
1613 1301 3805 2 
1614 3046 3932 3 
1615 3046 3045 1 
1616 5109 6053 2 
1617 645 3765 2 
1618 2811 3425 2 
1619 3425 3426 1 
1620 4853 5227 2 
1621 699 3321 2 
1622 1583 3337 2 
1623 283 4549 2 
1624 2484 3204 3 
1625 2484 2483 1 
1626 2484 3092 3 
1627 1402 1401 1 
1628 3114 5832 3 
1629 3114 3300 3 
1630 2921 5597 2 
1631 3204 3338 3 
1632 3204 3203 1 
1633 1206 2100 3 
1634 1206 1205 1 
1635 1206 5832 3 
1636 3300 1402 3 
1637 1782 1206 3 
1638 1782 1781 1 
1639 1782 5832 3 
1640 2100 1782 3 
1641 2100 2099 1 
1642 2100 3114 3 
1643 1772 1771 1 
1644 2702 1772 3 
1645 3338 2484 3 
1646 3338 3337 1 
1647 4549 4550 1 
1648 3092 3204 3 
1649 3092 3091 1 
1650 3092 3338 3 
1651 28 3272 3 
1652 4534 2456 3 
1653 4534 4533 1 
1654 4458 172 3 
1655 2456 1636 3 
1656 2456 2455 1 
1657 1636 400 3 
1658 1636 1635 1 
1659 1636 4534 3 
1660 172 171 1 
1661 1281 3091 2 
1662 2701 2702 1 
1663 400 2456 3 
1664 400 399 1 
1665 400 4534 3 
1666 2837 4565 2 
1667 1635 4851 2 
1668 4539 4540 1 
1669 1533 2455 2 
1670 960 1416 3 
1671 960 959 1 
1672 4244 4540 3 
1673 623 3121 2 
1674 623 624 1 
1675 4996 2838 3 
1676 4996 4995 1 
1677 3840 4996 3 
1678 3840 3839 1 
1679 3840 4244 3 
1680 4540 896 3 
1681 3105 5217 2 
1682 1787 4935 2 
1683 844 843 1 
1684 2199 5963 2 
1685 2950 4344 3 
1686 506 4936 3 
1687 506 505 1 
1688 4936 4230 3 
1689 4936 4935 1 
1690 2888 844 3 
1691 2105 4441 2 
1692 4441 4442 1 
1693 4811 4845 2 
1694 1245 5027 2 
1695 4271 4343 2 
1696 902 901 1 
1697 2026 902 3 
1698 1549 5017 2 
1699 1617 4331 2 
1700 60 572 3 
1701 32 5538 3 
1702 32 31 1 
1703 32 2494 3 
1704 32 1228 3 
1705 1228 2494 3 
1706 1228 1227 1 
1707 765 1657 2 
1708 572 571 1 
1709 5734 2764 3 
1710 5734 5733 1 
1711 1877 2059 2 
1712 2296 5110 3 
1713 2296 2295 1 
1714 3256 3255 1 
1715 6214 3256 3 
1716 5110 1878 3 
1717 5110 5109 1 
1718 1931 4775 2 
1719 416 1336 3 
1720 416 415 1 
1721 416 4948 3 
1722 384 383 1 
1723 1248 384 3 
1724 6188 350 3 
1725 6188 6187 1 
1726 4080 5228 3 
1727 4080 4079 1 
1728 4080 6188 3 
1729 5228 350 3 
1730 5228 5227 1 
1731 5228 6188 3 
1732 2812 2811 1 
1733 6046 2812 3 
1734 350 4080 3 
1735 350 349 1 
1736 3299 3300 1 
1737 3299 3329 2 
1738 2483 4079 2 
1739 82 1644 3 
1740 82 81 1 
1741 412 82 3 
1742 412 411 1 
1743 412 5480 3 
1744 74 2886 3 
1745 74 73 1 
1746 1376 74 3 
1747 1376 1375 1 
1748 1644 412 3 
1749 1644 1643 1 
1750 1644 5480 3 
1751 5480 82 3 
1752 5480 5479 1 
1753 1282 1018 3 