ITEM: TIMESTEP
102000
ITEM: NUMBER OF ENTRIES
8397
ITEM: BOX BOUNDS pp pp ff
0.0000000000000000e+00 5.1031036000000000e+01
0.0000000000000000e+00 5.1031036000000000e+01
-5.0000000000000000e-01 1.2500000000000000e+01
ITEM: ENTRIES index c_1[1] c_1[2] c_1[3]
1 515 2993 2 
2 5531 1285 2 
3 1075 5277 2 
4 4397 5641 2 
5 6170 6169 1 
6 3667 3668 1 
7 4552 4124 3 
8 4552 4551 1 
9 3880 4124 3 
10 3880 3879 1 
11 3880 4552 3 
12 3880 5724 3 
13 5724 4552 3 
14 5724 5723 1 
15 4124 5724 3 
16 4124 4123 1 
17 5532 1286 3 
18 5532 5531 1 
19 3228 6112 3 
20 3228 3227 1 
21 3228 5532 3 
22 6112 5532 3 
23 6112 6111 1 
24 1286 6112 3 
25 1286 1285 1 
26 1286 3228 3 
27 760 6202 3 
28 6202 6201 1 
29 4526 362 3 
30 4526 4525 1 
31 2024 6192 3 
32 2024 2023 1 
33 6192 3150 3 
34 6192 6191 1 
35 1108 700 3 
36 700 699 1 
37 3150 2024 3 
38 3150 3149 1 
39 3150 3784 3 
40 3784 2024 3 
41 3784 3783 1 
42 3784 6192 3 
43 589 3529 2 
44 2600 3060 3 
45 2600 2599 1 
46 3060 908 3 
47 3060 3059 1 
48 1470 908 3 
49 1470 1469 1 
50 1470 3060 3 
51 1470 2600 3 
52 908 2600 3 
53 908 907 1 
54 5057 1937 2 
55 1938 6180 3 
56 1938 1937 1 
57 5058 1938 3 
58 5058 5057 1 
59 6180 5058 3 
60 6180 6179 1 
61 2091 1425 2 
62 3161 4551 2 
63 4592 1038 3 
64 4592 4591 1 
65 1038 2742 3 
66 1038 1037 1 
67 3162 988 3 
68 3162 3161 1 
69 5802 4618 3 
70 5802 5801 1 
71 1268 5802 3 
72 1268 1267 1 
73 4618 1268 3 
74 4618 4617 1 
75 2667 3519 2 
76 5562 448 3 
77 5562 5561 1 
78 448 1202 3 
79 448 447 1 
80 1202 5562 3 
81 1202 1201 1 
82 460 4820 3 
83 460 459 1 
84 4626 460 3 
85 4626 4625 1 
86 4820 4626 3 
87 4820 4819 1 
88 2445 2739 2 
89 3728 4526 3 
90 3728 3727 1 
91 1107 1108 1 
92 247 1107 2 
93 3727 6191 2 
94 699 3321 2 
95 437 438 1 
96 1337 1338 1 
97 1337 1489 2 
98 1584 1668 3 
99 1584 1583 1 
100 2362 1584 3 
101 2362 2361 1 
102 1668 2362 3 
103 1668 1667 1 
104 4211 4212 1 
105 1667 4563 2 
106 732 318 3 
107 732 731 1 
108 318 3126 3 
109 318 317 1 
110 3126 732 3 
111 3126 3125 1 
112 1426 2810 3 
113 1426 1425 1 
114 2092 1426 3 
115 2092 2091 1 
116 280 2810 3 
117 280 279 1 
118 280 2092 3 
119 280 1426 3 
120 2810 2092 3 
121 2810 2809 1 
122 1059 1060 1 
123 1059 4185 2 
124 2357 2358 1 
125 2357 4229 2 
126 628 4930 3 
127 628 627 1 
128 628 5094 3 
129 628 5462 3 
130 4930 5094 3 
131 4930 4929 1 
132 6305 6306 1 
133 459 4011 2 
134 3318 4424 3 
135 3318 3317 1 
136 3811 4819 2 
137 4424 2446 3 
138 4424 4423 1 
139 1345 5511 2 
140 2446 1346 3 
141 2446 2445 1 
142 2446 3318 3 
143 1346 4424 3 
144 1346 1345 1 
145 1346 3318 3 
146 1455 3293 2 
147 273 2501 2 
148 4917 4918 1 
149 1583 3337 2 
150 6315 6316 1 
151 2161 4573 2 
152 3274 6086 3 
153 3274 3273 1 
154 3153 5093 2 
155 6325 6326 1 
156 3812 3780 3 
157 3812 3811 1 
158 3780 4012 3 
159 3780 3779 1 
160 4012 3812 3 
161 4012 4011 1 
162 74 2886 3 
163 74 73 1 
164 1376 74 3 
165 1376 1375 1 
166 596 2502 3 
167 596 595 1 
168 596 3316 3 
169 5598 1332 3 
170 4997 4998 1 
171 3338 2484 3 
172 3338 3337 1 
173 2484 3204 3 
174 2484 2483 1 
175 2484 3092 3 
176 3204 3338 3 
177 3204 3203 1 
178 1332 1331 1 
179 2406 720 3 
180 2406 2405 1 
181 720 1362 3 
182 720 719 1 
183 2483 4079 2 
184 1362 2406 3 
185 1362 1361 1 
186 5645 5646 1 
187 2533 5645 2 
188 624 3946 3 
189 624 3480 3 
190 3154 788 3 
191 3154 3153 1 
192 1246 788 3 
193 1246 1245 1 
194 1246 3154 3 
195 2162 1246 3 
196 2162 2161 1 
197 2162 3154 3 
198 788 2162 3 
199 788 787 1 
200 787 1033 2 
201 6164 4812 3 
202 6164 6163 1 
203 4812 3512 3 
204 4812 4811 1 
205 1043 4839 2 
206 3512 6164 3 
207 3512 3511 1 
208 2949 2950 1 
209 2949 6085 2 
210 1245 5027 2 
211 4840 538 3 
212 4840 4839 1 
213 538 3516 3 
214 538 537 1 
215 3516 1218 3 
216 3516 3515 1 
217 3516 4840 3 
218 1218 538 3 
219 1218 1217 1 
220 1218 4840 3 
221 3134 920 3 
222 4495 5273 2 
223 6293 6294 1 
224 3315 5069 2 
225 3435 3653 2 
226 2696 2695 1 
227 4550 2696 3 
228 2258 3644 3 
229 2258 2257 1 
230 2258 3436 3 
231 3644 5574 3 
232 3644 3643 1 
233 5574 2258 3 
234 5574 5573 1 
235 3436 5574 3 
236 3436 3435 1 
237 3436 3644 3 
238 4080 5228 3 
239 4080 4079 1 
240 4080 6188 3 
241 392 1392 3 
242 392 391 1 
243 1392 314 3 
244 1392 1391 1 
245 5646 3480 3 
246 2534 2533 1 
247 2534 5646 3 
248 3480 3479 1 
249 3480 1044 3 
250 1044 1043 1 
251 1044 5646 3 
252 1044 2534 3 
253 3946 3945 1 
254 3946 2534 3 
255 255 256 1 
256 255 1841 2 
257 1354 2410 3 
258 1354 1353 1 
259 762 1354 3 
260 762 761 1 
261 2410 762 3 
262 2410 2409 1 
263 920 919 1 
264 537 2517 2 
265 4529 5205 2 
266 4529 4530 1 
267 216 2224 3 
268 216 215 1 
269 216 766 3 
270 766 2224 3 
271 766 765 1 
272 766 5650 3 
273 765 1657 2 
274 4792 1480 3 
275 4792 4791 1 
276 4276 4792 3 
277 4276 4275 1 
278 1480 4276 3 
279 1480 1479 1 
280 449 4829 2 
281 2986 4694 3 
282 2986 2985 1 
283 2930 2986 3 
284 2930 2929 1 
285 2930 4502 3 
286 2930 4694 3 
287 4502 2986 3 
288 4502 4501 1 
289 3355 5573 2 
290 391 3089 2 
291 314 392 3 
292 314 313 1 
293 3089 3090 1 
294 5052 2712 3 
295 5052 5051 1 
296 3716 5052 3 
297 3716 3715 1 
298 2712 3716 3 
299 2712 2711 1 
300 3005 3517 2 
301 1353 5575 2 
302 3517 3518 1 
303 2835 4801 2 
304 256 1842 3 
305 256 2518 3 
306 256 6000 3 
307 2989 2990 1 
308 2989 3887 2 
309 2304 340 3 
310 2304 3452 3 
311 2304 4864 3 
312 5650 216 3 
313 5650 5649 1 
314 2224 5650 3 
315 2224 2223 1 
316 1827 5785 2 
317 1479 2097 2 
318 3256 3255 1 
319 6214 3256 3 
320 4141 4142 1 
321 4141 4205 2 
322 4890 2416 3 
323 4890 4889 1 
324 4889 6235 2 
325 5149 5150 1 
326 1712 3090 3 
327 3678 3677 1 
328 2996 3678 3 
329 3090 450 3 
330 2308 2996 3 
331 2308 3678 3 
332 1428 3678 3 
333 1428 2996 3 
334 1428 1712 3 
335 261 2305 2 
336 1427 1428 1 
337 1427 5751 2 
338 2171 4371 2 
339 3773 3963 2 
340 105 3971 2 
341 3405 4517 2 
342 2375 2376 1 
343 2096 2570 3 
344 2096 2376 3 
345 326 4802 3 
346 326 325 1 
347 326 3974 3 
348 224 326 3 
349 224 223 1 
350 3974 224 3 
351 3974 3973 1 
352 3974 4802 3 
353 982 1828 3 
354 982 981 1 
355 5182 982 3 
356 5182 5181 1 
357 1828 5182 3 
358 1828 1827 1 
359 5745 6143 2 
360 2915 3075 2 
361 4604 5736 3 
362 4604 4603 1 
363 4604 5996 3 
364 5996 5736 3 
365 5996 5995 1 
366 5736 152 3 
367 5736 5735 1 
368 4209 6021 2 
369 3714 8 3 
370 3714 3713 1 
371 5858 4206 3 
372 5858 5857 1 
373 2715 3633 2 
374 8 1908 3 
375 8 7 1 
376 2995 2996 1 
377 2995 5497 2 
378 3774 264 3 
379 3774 3773 1 
380 242 106 3 
381 242 241 1 
382 242 3774 3 
383 242 264 3 
384 106 3774 3 
385 106 105 1 
386 264 106 3 
387 264 263 1 
388 1898 2306 3 
389 1898 1897 1 
390 1898 2172 3 
391 1898 4518 3 
392 2306 4518 3 
393 2306 2305 1 
394 4518 2172 3 
395 4518 4517 1 
396 2172 2306 3 
397 2172 2171 1 
398 263 2375 2 
399 5212 1408 3 
400 2262 1928 3 
401 2262 2261 1 
402 2262 3424 3 
403 2262 5416 3 
404 4571 5181 2 
405 5746 6144 3 
406 5746 5745 1 
407 6144 2510 3 
408 6144 6143 1 
409 4572 2510 3 
410 4572 4571 1 
411 4572 5746 3 
412 4572 6144 3 
413 2510 5746 3 
414 2510 2509 1 
415 3075 3076 1 
416 6299 6300 1 
417 3916 3915 1 
418 6234 3916 3 
419 34 5938 3 
420 34 33 1 
421 34 1622 3 
422 1622 4210 3 
423 1622 1621 1 
424 1622 5938 3 
425 5636 338 3 
426 5636 5635 1 
427 354 2824 3 
428 354 2032 3 
429 354 5636 3 
430 2032 2824 3 
431 1612 5636 3 
432 1612 1611 1 
433 1612 2032 3 
434 1611 5635 2 
435 3634 5430 3 
436 3634 3633 1 
437 3450 330 3 
438 3450 3449 1 
439 582 3450 3 
440 582 581 1 
441 330 582 3 
442 330 329 1 
443 1908 3714 3 
444 1908 1907 1 
445 2716 3634 3 
446 2716 2715 1 
447 5430 2716 3 
448 5430 5429 1 
449 1834 4074 3 
450 1834 1833 1 
451 2318 1834 3 
452 2318 2317 1 
453 4074 2318 3 
454 4074 4073 1 
455 4850 170 3 
456 2982 5118 3 
457 5118 5117 1 
458 170 169 1 
459 285 4073 2 
460 745 746 1 
461 745 3745 2 
462 3223 4173 2 
463 1408 1407 1 
464 1708 5272 3 
465 1708 1707 1 
466 2404 5880 3 
467 2404 2403 1 
468 2404 5624 3 
469 1928 5416 3 
470 1928 1927 1 
471 3424 1928 3 
472 3424 3423 1 
473 4342 494 3 
474 4342 4341 1 
475 494 1662 3 
476 494 493 1 
477 1662 4342 3 
478 1662 1661 1 
479 2001 2807 2 
480 6010 4908 3 
481 6010 6009 1 
482 2316 6010 3 
483 2316 2315 1 
484 4920 2316 3 
485 4920 4919 1 
486 4920 6010 3 
487 2331 3123 2 
488 1620 1619 1 
489 3071 6009 2 
490 4908 2316 3 
491 4908 4907 1 
492 4908 4920 3 
493 869 3709 2 
494 3709 3710 1 
495 3710 1620 3 
496 2392 948 3 
497 2392 2391 1 
498 2392 2756 3 
499 581 5517 2 
500 253 4431 2 
501 4432 1132 3 
502 4432 4431 1 
503 5482 4432 3 
504 5482 5481 1 
505 5482 5850 3 
506 4818 1880 3 
507 4818 4817 1 
508 5850 4432 3 
509 5850 5849 1 
510 1132 5850 3 
511 1132 1131 1 
512 1132 5482 3 
513 1999 2197 2 
514 169 4433 2 
515 2000 1082 3 
516 2000 1999 1 
517 2000 4818 3 
518 558 1926 3 
519 558 557 1 
520 558 1780 3 
521 1925 4193 2 
522 1082 4818 3 
523 1082 1081 1 
524 1880 1082 3 
525 1880 1879 1 
526 1880 2000 3 
527 557 5765 2 
528 1926 5072 3 
529 1926 1925 1 
530 3746 3745 1 
531 867 1707 2 
532 1696 3346 3 
533 1696 1695 1 
534 3346 1854 3 
535 3346 3345 1 
536 1854 1696 3 
537 1854 1853 1 
538 2064 4100 3 
539 2063 3445 2 
540 2063 2064 1 
541 4084 4620 3 
542 4084 4083 1 
543 4084 5142 3 
544 4084 5126 3 
545 4718 5668 3 
546 5668 5667 1 
547 5710 5709 1 
548 703 2391 2 
549 4919 5529 2 
550 1377 5617 2 
551 2425 2426 1 
552 2425 3201 2 
553 333 6119 2 
554 333 334 1 
555 5982 852 3 
556 5982 5981 1 
557 1719 2457 2 
558 1605 1606 1 
559 1131 5639 2 
560 1780 5072 3 
561 1780 1779 1 
562 1780 1926 3 
563 5072 558 3 
564 5072 5071 1 
565 5787 5788 1 
566 5086 5184 3 
567 5086 5085 1 
568 5086 5868 3 
569 4585 4586 1 
570 2845 4585 2 
571 910 970 3 
572 910 909 1 
573 5702 910 3 
574 5702 5701 1 
575 970 5702 3 
576 970 969 1 
577 76 1910 3 
578 76 75 1 
579 1910 2506 3 
580 1910 1909 1 
581 3747 5601 2 
582 3826 2936 3 
583 2936 2935 1 
584 4834 3448 3 
585 4834 4833 1 
586 3430 4834 3 
587 3430 3429 1 
588 3448 3430 3 
589 3448 3447 1 
590 2607 2608 1 
591 496 2442 3 
592 496 495 1 
593 496 4068 3 
594 2496 4878 3 
595 2442 540 3 
596 2442 2441 1 
597 2442 2496 3 
598 540 496 3 
599 540 539 1 
600 540 4068 3 
601 1123 3447 2 
602 1952 1951 1 
603 1952 2496 3 
604 1952 4068 3 
605 4878 1952 3 
606 3911 6103 2 
607 1325 6125 2 
608 604 603 1 
609 603 5085 2 
610 638 604 3 
611 5111 5112 1 
612 175 1561 2 
613 234 233 1 
614 1484 234 3 
615 233 1179 2 
616 1179 1180 1 
617 1204 2846 3 
618 1204 1203 1 
619 1204 4586 3 
620 2846 1958 3 
621 2846 2845 1 
622 2846 4586 3 
623 4876 5298 3 
624 2506 76 3 
625 2506 2505 1 
626 2506 4876 3 
627 5298 862 3 
628 862 861 1 
629 862 4876 3 
630 1180 1494 3 
631 1180 2492 3 
632 1180 5298 3 
633 4104 2492 3 
634 4104 4103 1 
635 1494 4104 3 
636 1494 6090 3 
637 1958 1204 3 
638 1958 1957 1 
639 1958 4586 3 
640 2492 6090 3 
641 2492 2491 1 
642 5297 5298 1 
643 277 5297 2 
644 221 222 1 
645 205 6029 2 
646 6029 6030 1 
647 3194 4714 3 
648 3194 3193 1 
649 206 502 3 
650 206 205 1 
651 206 4714 3 
652 206 3194 3 
653 2328 4888 3 
654 2328 2327 1 
655 1943 3007 2 
656 6043 6044 1 
657 3825 5973 2 
658 3825 3826 1 
659 5973 5974 1 
660 6281 6282 1 
661 4872 3748 3 
662 4872 4871 1 
663 3096 4872 3 
664 3096 3095 1 
665 3748 3096 3 
666 3748 3747 1 
667 2608 3226 3 
668 2321 2935 2 
669 2441 539 2 
670 495 3591 2 
671 461 1063 2 
672 2421 4609 2 
673 98 97 1 
674 2116 98 3 
675 2994 1076 3 
676 2994 2993 1 
677 4892 2994 3 
678 4892 4891 1 
679 4892 5318 3 
680 1076 4892 3 
681 1076 1075 1 
682 1076 5318 3 
683 5318 2994 3 
684 5318 5317 1 
685 1957 6051 2 
686 278 277 1 
687 5526 278 3 
688 655 3913 2 
689 781 782 1 
690 781 4825 2 
691 2010 822 3 
692 2010 2009 1 
693 822 5074 3 
694 822 821 1 
695 5074 2010 3 
696 5074 5073 1 
697 1685 3929 2 
698 3379 3380 1 
699 451 1297 2 
700 1154 444 3 
701 1154 1153 1 
702 1154 2066 3 
703 1154 6194 3 
704 6194 444 3 
705 6194 6193 1 
706 444 2066 3 
707 444 443 1 
708 2066 6194 3 
709 2066 2065 1 
710 669 5801 2 
711 1446 4630 3 
712 1446 1445 1 
713 4630 3184 3 
714 4630 4629 1 
715 3227 3395 2 
716 3466 4478 3 
717 3466 3465 1 
718 3184 1446 3 
719 3184 3183 1 
720 736 1324 3 
721 736 735 1 
722 4478 2538 3 
723 4478 4477 1 
724 516 3342 3 
725 516 515 1 
726 516 5314 3 
727 3342 1148 3 
728 3342 3341 1 
729 1148 516 3 
730 1148 1147 1 
731 1148 5314 3 
732 5314 3342 3 
733 5314 5313 1 
734 2040 1364 3 
735 2040 3396 3 
736 3396 5568 3 
737 3395 3396 1 
738 2538 3466 3 
739 2538 2537 1 
740 1724 2662 3 
741 1724 1723 1 
742 196 1724 3 
743 196 195 1 
744 196 4420 3 
745 1723 5755 2 
746 4024 142 3 
747 4024 4023 1 
748 548 180 3 
749 548 547 1 
750 548 3000 3 
751 548 6052 3 
752 180 6052 3 
753 180 179 1 
754 208 3042 3 
755 208 207 1 
756 5852 208 3 
757 5852 5851 1 
758 1512 1511 1 
759 547 759 2 
760 759 760 1 
761 142 2472 3 
762 142 141 1 
763 4143 4144 1 
764 3042 5852 3 
765 3042 3041 1 
766 3041 4525 2 
767 5641 5642 1 
768 179 5547 2 
769 5781 5782 1 
770 1523 5629 2 
771 2472 4024 3 
772 2472 2471 1 
773 917 5203 2 
774 3475 3749 2 
775 2983 5781 2 
776 918 2776 3 
777 918 917 1 
778 3343 3621 2 
779 4667 5463 2 
780 499 500 1 
781 499 2863 2 
782 4826 3750 3 
783 4826 4825 1 
784 3621 3622 1 
785 3712 918 3 
786 3712 3711 1 
787 2173 3257 2 
788 3844 590 3 
789 3844 3843 1 
790 3844 4970 3 
791 625 626 1 
792 625 2599 2 
793 4504 2174 3 
794 4504 4503 1 
795 4548 4504 3 
796 4548 4547 1 
797 2174 4548 3 
798 2174 2173 1 
799 3768 2174 3 
800 3768 3767 1 
801 3768 4504 3 
802 3768 4548 3 
803 149 5073 2 
804 860 2468 3 
805 860 859 1 
806 2468 432 3 
807 2468 2467 1 
808 432 860 3 
809 432 431 1 
810 1861 2827 2 
811 2212 6170 3 
812 5040 3002 3 
813 5040 5039 1 
814 3002 1002 3 
815 3002 3001 1 
816 1002 5040 3 
817 1002 1001 1 
818 1499 2467 2 
819 751 4311 2 
820 1341 3977 2 
821 813 3115 2 
822 5092 3930 3 
823 5092 5091 1 
824 3930 814 3 
825 3930 3929 1 
826 814 5092 3 
827 814 813 1 
828 3978 2578 3 
829 3978 3977 1 
830 1342 3978 3 
831 1342 1341 1 
832 1342 2424 3 
833 1342 2578 3 
834 4662 958 3 
835 4662 4661 1 
836 2423 4577 2 
837 3116 3115 1 
838 957 2523 2 
839 2523 2524 1 
840 4262 3116 3 
841 2525 6193 2 
842 1732 6048 3 
843 1732 1731 1 
844 1546 598 3 
845 1546 1545 1 
846 1546 1732 3 
847 6048 1546 3 
848 6048 6047 1 
849 598 6048 3 
850 598 597 1 
851 598 1732 3 
852 3639 5001 2 
853 2743 2744 1 
854 2743 6047 2 
855 2744 3738 3 
856 3862 4568 3 
857 4568 5436 3 
858 1580 5436 3 
859 1580 3010 3 
860 1580 3862 3 
861 5436 5435 1 
862 3010 5436 3 
863 3010 4568 3 
864 2681 5655 2 
865 4119 6057 2 
866 2766 3854 3 
867 2766 2765 1 
868 2766 4672 3 
869 3738 3737 1 
870 3738 3862 3 
871 3527 3717 2 
872 5656 6088 3 
873 5656 5655 1 
874 4120 4119 1 
875 3986 4310 3 
876 3986 4120 3 
877 618 3986 3 
878 618 4310 3 
879 618 4120 3 
880 3854 3264 3 
881 3854 3853 1 
882 4026 5286 3 
883 4026 4025 1 
884 4584 4026 3 
885 4584 4583 1 
886 5286 4584 3 
887 5286 5285 1 
888 1412 4026 3 
889 1412 1411 1 
890 1412 5286 3 
891 1412 4584 3 
892 3528 3527 1 
893 5208 3528 3 
894 5207 5208 1 
895 4310 4120 3 
896 6178 3956 3 
897 6178 6177 1 
898 2519 5207 2 
899 1948 1762 3 
900 1948 1947 1 
901 2520 1948 3 
902 2520 2519 1 
903 1762 2520 3 
904 1762 1761 1 
905 3956 768 3 
906 3956 3955 1 
907 599 1323 2 
908 1037 2383 2 
909 1761 6111 2 
910 1445 3341 2 
911 826 4200 3 
912 826 825 1 
913 4200 1440 3 
914 4200 4199 1 
915 1440 826 3 
916 1440 1439 1 
917 2974 118 3 
918 2974 2973 1 
919 2974 3962 3 
920 1128 118 3 
921 1128 1127 1 
922 1128 2974 3 
923 228 736 3 
924 228 227 1 
925 1324 228 3 
926 1324 1323 1 
927 3962 1128 3 
928 3962 3961 1 
929 118 3962 3 
930 118 117 1 
931 1201 4923 2 
932 227 5387 2 
933 4924 5380 3 
934 4924 4923 1 
935 265 266 1 
936 265 3899 2 
937 5313 5417 2 
938 1262 5278 3 
939 1262 1261 1 
940 5278 1924 3 
941 5278 5277 1 
942 1924 1262 3 
943 1924 1923 1 
944 1147 6083 2 
945 5756 4904 3 
946 5756 5755 1 
947 5630 5756 3 
948 5630 5629 1 
949 891 2393 2 
950 362 3728 3 
951 362 361 1 
952 5642 4398 3 
953 5539 5540 1 
954 361 5539 2 
955 3044 4144 3 
956 6128 4614 3 
957 6128 6127 1 
958 586 3810 3 
959 586 6128 3 
960 586 4614 3 
961 4398 4397 1 
962 3740 5642 3 
963 3740 4398 3 
964 802 4398 3 
965 802 3740 3 
966 802 5642 3 
967 5669 5670 1 
968 2366 3044 3 
969 2366 2388 3 
970 2366 3810 3 
971 4144 2388 3 
972 2388 2387 1 
973 2388 3044 3 
974 4614 2954 3 
975 4614 4613 1 
976 2954 6128 3 
977 2954 2953 1 
978 3810 4144 3 
979 5300 5464 3 
980 805 4613 2 
981 2984 2983 1 
982 2984 5670 3 
983 3788 3787 1 
984 4944 3788 3 
985 4944 5300 3 
986 2942 4944 3 
987 2942 3788 3 
988 2942 2984 3 
989 1098 5464 3 
990 1098 1097 1 
991 1098 5670 3 
992 1490 1489 1 
993 4392 1098 3 
994 4392 4391 1 
995 4392 5670 3 
996 5464 4392 3 
997 5464 5463 1 
998 3783 4869 2 
999 500 1490 3 
1000 500 5300 3 
1001 4329 4391 2 
1002 1559 2953 2 
1003 590 4970 3 
1004 590 589 1 
1005 3188 1092 3 
1006 3188 3187 1 
1007 310 590 3 
1008 310 309 1 
1009 310 3844 3 
1010 4970 310 3 
1011 4970 4969 1 
1012 3059 4969 2 
1013 3617 5727 2 
1014 731 3767 2 
1015 431 3513 2 
1016 907 5679 2 
1017 1469 3325 2 
1018 3001 4965 2 
1019 2963 2964 1 
1020 2963 3027 2 
1021 3125 5413 2 
1022 3514 2050 3 
1023 3514 3513 1 
1024 3514 4564 3 
1025 3514 5680 3 
1026 2050 4564 3 
1027 2050 2049 1 
1028 251 1233 2 
1029 2852 5030 3 
1030 2852 2851 1 
1031 2851 3687 2 
1032 1920 1510 3 
1033 1920 1919 1 
1034 3492 2852 3 
1035 3492 3491 1 
1036 6297 6298 1 
1037 3458 962 3 
1038 3458 3457 1 
1039 962 1400 3 
1040 962 961 1 
1041 962 2248 3 
1042 2248 1400 3 
1043 2248 2247 1 
1044 2248 3458 3 
1045 1400 3458 3 
1046 1400 1399 1 
1047 2647 5441 2 
1048 653 961 2 
1049 3457 4025 2 
1050 597 1579 2 
1051 2397 2555 2 
1052 3737 4519 2 
1053 4018 5656 3 
1054 4018 4017 1 
1055 409 410 1 
1056 409 5993 2 
1057 531 1399 2 
1058 6088 4018 3 
1059 6088 6087 1 
1060 3443 3611 2 
1061 3985 3986 1 
1062 1579 1580 1 
1063 627 4933 2 
1064 3467 3468 1 
1065 3467 3841 2 
1066 4519 4520 1 
1067 617 618 1 
1068 617 1077 2 
1069 1212 664 3 
1070 410 4520 3 
1071 410 1370 3 
1072 410 3468 3 
1073 532 531 1 
1074 3468 532 3 
1075 1370 3858 3 
1076 1370 1369 1 
1077 527 609 2 
1078 527 528 1 
1079 2742 4592 3 
1080 2742 2741 1 
1081 1078 184 3 
1082 1078 1077 1 
1083 1078 2692 3 
1084 6092 1078 3 
1085 6092 6091 1 
1086 3833 4673 2 
1087 1713 5383 2 
1088 184 6092 3 
1089 184 183 1 
1090 184 2692 3 
1091 2692 6092 3 
1092 2692 2691 1 
1093 4489 6203 2 
1094 1714 3834 3 
1095 1714 1713 1 
1096 1714 6042 3 
1097 1714 2218 3 
1098 988 5384 3 
1099 988 987 1 
1100 2561 5723 2 
1101 4123 5975 2 
1102 347 2741 2 
1103 266 3050 3 
1104 5384 3162 3 
1105 5384 5383 1 
1106 5976 348 3 
1107 5976 5975 1 
1108 1006 5242 3 
1109 1006 1005 1 
1110 5242 4368 3 
1111 5242 5241 1 
1112 4368 1006 3 
1113 4368 4367 1 
1114 348 3920 3 
1115 348 347 1 
1116 3920 5976 3 
1117 3920 3919 1 
1118 3878 2420 3 
1119 3878 3877 1 
1120 3050 3049 1 
1121 3086 3950 3 
1122 3086 3085 1 
1123 3950 4462 3 
1124 3950 3949 1 
1125 5124 6174 3 
1126 5124 5123 1 
1127 5124 5800 3 
1128 6174 5800 3 
1129 6174 6173 1 
1130 2668 6174 3 
1131 2668 2667 1 
1132 2668 5124 3 
1133 5800 2668 3 
1134 5800 5799 1 
1135 1439 3265 2 
1136 4253 4617 2 
1137 4277 4625 2 
1138 580 138 3 
1139 580 579 1 
1140 580 4558 3 
1141 2226 580 3 
1142 2226 2225 1 
1143 138 2226 3 
1144 138 137 1 
1145 138 4558 3 
1146 4537 4777 2 
1147 5101 6173 2 
1148 4804 3110 3 
1149 4804 4803 1 
1150 5388 4804 3 
1151 5388 5387 1 
1152 1663 4461 2 
1153 579 3049 2 
1154 2273 3961 2 
1155 4558 2226 3 
1156 4558 4557 1 
1157 5922 1942 3 
1158 5922 5921 1 
1159 1942 3520 3 
1160 1942 1941 1 
1161 1942 2438 3 
1162 3520 5922 3 
1163 3520 3519 1 
1164 2438 3520 3 
1165 2438 2437 1 
1166 2438 5922 3 
1167 5356 3200 3 
1168 5356 5355 1 
1169 6084 5356 3 
1170 6084 6083 1 
1171 3200 6084 3 
1172 3200 3199 1 
1173 1923 5427 2 
1174 601 602 1 
1175 601 3199 2 
1176 5418 2394 3 
1177 5418 5417 1 
1178 5320 5418 3 
1179 5320 5319 1 
1180 2365 2366 1 
1181 2019 2020 1 
1182 2019 2365 2 
1183 401 6201 2 
1184 5920 166 3 
1185 166 165 1 
1186 2394 5320 3 
1187 2394 2393 1 
1188 5243 6127 2 
1189 269 2255 2 
1190 2255 2256 1 
1191 5428 2740 3 
1192 5428 5427 1 
1193 2791 4133 2 
1194 158 3728 3 
1195 158 157 1 
1196 158 362 3 
1197 158 4526 3 
1198 4943 4944 1 
1199 3787 4943 2 
1200 157 1535 2 
1201 615 3739 2 
1202 6025 6026 1 
1203 3671 6025 2 
1204 4246 5428 3 
1205 4246 4245 1 
1206 2740 4246 3 
1207 2740 2739 1 
1208 602 402 3 
1209 2148 1442 3 
1210 2148 2147 1 
1211 2148 4480 3 
1212 402 401 1 
1213 402 2256 3 
1214 402 1804 3 
1215 806 2148 3 
1216 806 805 1 
1217 4546 4545 1 
1218 438 4546 3 
1219 3322 792 3 
1220 3322 3321 1 
1221 3322 4204 3 
1222 3322 5438 3 
1223 5438 4204 3 
1224 5438 5437 1 
1225 4204 792 3 
1226 4204 4203 1 
1227 1097 4179 2 
1228 5502 3472 3 
1229 5502 5501 1 
1230 4176 5502 3 
1231 4176 4175 1 
1232 3530 4176 3 
1233 3530 3529 1 
1234 3530 5502 3 
1235 3472 4176 3 
1236 3472 3471 1 
1237 3472 3530 3 
1238 2361 5519 2 
1239 2991 3029 2 
1240 99 5845 2 
1241 4866 4865 1 
1242 5934 4866 3 
1243 4554 1698 3 
1244 4554 4553 1 
1245 1698 5284 3 
1246 1698 1697 1 
1247 5789 6179 2 
1248 5680 2050 3 
1249 5680 5679 1 
1250 4564 5680 3 
1251 4564 4563 1 
1252 1234 3030 3 
1253 1234 1233 1 
1254 100 5590 3 
1255 100 99 1 
1256 100 4758 3 
1257 3618 100 3 
1258 3618 3617 1 
1259 3618 4758 3 
1260 4758 5590 3 
1261 4758 4757 1 
1262 3326 1234 3 
1263 3326 3325 1 
1264 3030 3326 3 
1265 3030 3029 1 
1266 5590 3618 3 
1267 5590 5589 1 
1268 1697 3147 2 
1269 317 1845 2 
1270 279 1967 2 
1271 1919 5589 2 
1272 2882 2912 3 
1273 2882 2881 1 
1274 2912 3434 3 
1275 2912 2911 1 
1276 3434 2882 3 
1277 3434 3433 1 
1278 4273 4274 1 
1279 2119 4273 2 
1280 1050 4468 3 
1281 1050 1049 1 
1282 2750 1846 3 
1283 2750 2749 1 
1284 2750 3216 3 
1285 2750 6132 3 
1286 1846 6132 3 
1287 1846 1845 1 
1288 6269 6270 1 
1289 6132 3216 3 
1290 6132 6131 1 
1291 3216 1846 3 
1292 3216 3215 1 
1293 4468 3120 3 
1294 4468 4467 1 
1295 1510 1960 3 
1296 1510 1509 1 
1297 1960 1920 3 
1298 1960 1959 1 
1299 1959 4159 2 
1300 5700 6056 3 
1301 5700 5699 1 
1302 2312 5700 3 
1303 2312 2311 1 
1304 4186 3024 3 
1305 4186 4185 1 
1306 3688 406 3 
1307 3688 3687 1 
1308 3688 4186 3 
1309 4453 5699 2 
1310 6056 2312 3 
1311 6056 6055 1 
1312 4160 3832 3 
1313 4160 4159 1 
1314 1062 4160 3 
1315 1062 1061 1 
1316 1016 2106 3 
1317 1016 1015 1 
1318 3842 4846 3 
1319 756 3370 3 
1320 756 755 1 
1321 756 3842 3 
1322 4230 506 3 
1323 4230 4229 1 
1324 4846 1016 3 
1325 4846 4845 1 
1326 2786 3754 3 
1327 2786 2785 1 
1328 2786 4736 3 
1329 3832 1062 3 
1330 3832 3831 1 
1331 573 1015 2 
1332 5094 5462 3 
1333 5094 5093 1 
1334 5462 4930 3 
1335 5462 5461 1 
1336 4882 3570 3 
1337 4882 4881 1 
1338 528 2414 3 
1339 2414 2413 1 
1340 3841 3842 1 
1341 664 663 1 
1342 4520 5892 3 
1343 5892 1370 3 
1344 5892 5891 1 
1345 3858 5892 3 
1346 3858 3857 1 
1347 3858 4520 3 
1348 4929 5633 2 
1349 3444 4490 3 
1350 3444 3443 1 
1351 5633 5634 1 
1352 3569 5315 2 
1353 3570 1822 3 
1354 3570 3569 1 
1355 467 2449 2 
1356 2128 2127 1 
1357 1211 1747 2 
1358 1211 1212 1 
1359 6203 6204 1 
1360 2691 3857 2 
1361 3834 2218 3 
1362 3834 3833 1 
1363 6042 3834 3 
1364 6042 6041 1 
1365 2218 6042 3 
1366 2218 2217 1 
1367 2217 5063 2 
1368 6204 5396 3 
1369 4462 3086 3 
1370 4462 4461 1 
1371 1458 2562 3 
1372 1458 1457 1 
1373 2562 4278 3 
1374 2562 2561 1 
1375 2231 5799 2 
1376 183 779 2 
1377 5396 5395 1 
1378 4278 1458 3 
1379 4278 4277 1 
1380 4538 4254 3 
1381 4538 4537 1 
1382 4538 6116 3 
1383 3136 4538 3 
1384 3136 3135 1 
1385 3136 6116 3 
1386 4254 3136 3 
1387 4254 4253 1 
1388 4254 6116 3 
1389 857 5561 2 
1390 858 1824 3 
1391 858 857 1 
1392 858 1628 3 
1393 858 2670 3 
1394 1824 2670 3 
1395 1824 1823 1 
1396 4778 2280 3 
1397 4778 4777 1 
1398 2280 5716 3 
1399 2280 2279 1 
1400 2280 3764 3 
1401 2670 1628 3 
1402 2670 2669 1 
1403 1628 1824 3 
1404 1628 1627 1 
1405 3110 5388 3 
1406 3110 3109 1 
1407 2274 3110 3 
1408 2274 2273 1 
1409 2274 4804 3 
1410 2274 5388 3 
1411 3792 2834 3 
1412 3792 3791 1 
1413 3652 2906 3 
1414 3652 3651 1 
1415 2906 4794 3 
1416 2906 2905 1 
1417 4794 3652 3 
1418 4794 4793 1 
1419 4695 4696 1 
1420 1266 3792 3 
1421 1266 1265 1 
1422 1266 2834 3 
1423 1266 5102 3 
1424 2834 5102 3 
1425 2834 2833 1 
1426 5472 790 3 
1427 5472 5471 1 
1428 2833 3317 2 
1429 1452 1086 3 
1430 1452 1451 1 
1431 5062 790 3 
1432 5062 5061 1 
1433 5062 5472 3 
1434 790 1026 3 
1435 790 789 1 
1436 1026 5472 3 
1437 1026 1025 1 
1438 1026 5062 3 
1439 5919 5920 1 
1440 4803 5919 2 
1441 4105 4423 2 
1442 1086 2300 3 
1443 1086 1085 1 
1444 1086 4786 3 
1445 2300 1452 3 
1446 2300 2299 1 
1447 2300 4786 3 
1448 3764 4778 3 
1449 3764 3763 1 
1450 3764 5716 3 
1451 5716 4778 3 
1452 5716 5715 1 
1453 1572 1456 3 
1454 4786 1452 3 
1455 4786 4785 1 
1456 59 60 1 
1457 59 165 2 
1458 1456 1455 1 
1459 3293 3294 1 
1460 1571 2645 2 
1461 1571 1572 1 
1462 2075 5943 2 
1463 397 5035 2 
1464 1804 2256 3 
1465 1338 2020 3 
1466 248 247 1 
1467 248 2256 3 
1468 248 1804 3 
1469 5512 2632 3 
1470 5512 5511 1 
1471 2020 248 3 
1472 5244 1410 3 
1473 5244 5243 1 
1474 1410 5496 3 
1475 1410 1409 1 
1476 2894 1410 3 
1477 2894 2893 1 
1478 2894 5244 3 
1479 2894 5496 3 
1480 2632 4134 3 
1481 2632 2631 1 
1482 5496 5244 3 
1483 5496 5495 1 
1484 4134 5512 3 
1485 4134 4133 1 
1486 1803 1804 1 
1487 1803 2157 2 
1488 2646 2970 3 
1489 2646 2645 1 
1490 2646 3294 3 
1491 3672 3671 1 
1492 3672 4266 3 
1493 3672 6018 3 
1494 4118 3672 3 
1495 4118 6026 3 
1496 4118 4266 3 
1497 4266 6026 3 
1498 3426 6018 3 
1499 2970 2346 3 
1500 2970 2969 1 
1501 791 5965 2 
1502 6018 6026 3 
1503 2628 616 3 
1504 3294 3426 3 
1505 300 2346 3 
1506 300 2970 3 
1507 300 1028 3 
1508 2346 2646 3 
1509 2346 2345 1 
1510 1028 3294 3 
1511 1028 3426 3 
1512 2147 2389 2 
1513 2130 606 3 
1514 2130 2129 1 
1515 2130 3708 3 
1516 4388 2130 3 
1517 4388 4387 1 
1518 3708 4388 3 
1519 3708 3707 1 
1520 606 4388 3 
1521 606 605 1 
1522 606 3708 3 
1523 792 5438 3 
1524 792 791 1 
1525 2627 2628 1 
1526 2627 6037 2 
1527 2922 3692 3 
1528 2922 2921 1 
1529 6224 2922 3 
1530 6224 6223 1 
1531 3692 2932 3 
1532 3692 3691 1 
1533 3692 6224 3 
1534 2932 2922 3 
1535 2932 2931 1 
1536 2932 6224 3 
1537 4287 5579 2 
1538 4117 4118 1 
1539 1165 5495 2 
1540 1870 274 3 
1541 1870 4998 3 
1542 4998 5846 3 
1543 4114 4998 3 
1544 4114 5846 3 
1545 5846 5845 1 
1546 2264 5846 3 
1547 2264 4114 3 
1548 4918 682 3 
1549 682 681 1 
1550 274 273 1 
1551 3471 5933 2 
1552 5933 5934 1 
1553 2405 4457 2 
1554 4457 4458 1 
1555 4113 4114 1 
1556 1671 4865 2 
1557 5790 3952 3 
1558 5790 5789 1 
1559 5790 6122 3 
1560 3952 2992 3 
1561 3952 3951 1 
1562 6122 3952 3 
1563 6122 6121 1 
1564 2992 5790 3 
1565 2992 2991 1 
1566 2992 6122 3 
1567 944 1366 3 
1568 944 943 1 
1569 2120 944 3 
1570 2120 2119 1 
1571 3272 3271 1 
1572 1971 2809 2 
1573 4730 3108 3 
1574 4730 4729 1 
1575 4416 4730 3 
1576 4416 4415 1 
1577 1972 4566 3 
1578 1972 1971 1 
1579 1672 4748 3 
1580 1672 1671 1 
1581 4566 2892 3 
1582 4566 4565 1 
1583 4566 5452 3 
1584 2892 1972 3 
1585 2892 2891 1 
1586 2892 5452 3 
1587 3047 5927 2 
1588 5927 5928 1 
1589 5452 1972 3 
1590 5452 5451 1 
1591 2358 3048 3 
1592 406 4186 3 
1593 406 405 1 
1594 405 4415 2 
1595 1060 3048 3 
1596 1060 2358 3 
1597 1060 2284 3 
1598 3048 3047 1 
1599 2284 3048 3 
1600 2284 2358 3 
1601 4936 4230 3 
1602 4936 4935 1 
1603 506 4936 3 
1604 506 505 1 
1605 2311 5613 2 
1606 3024 406 3 
1607 3024 3023 1 
1608 3024 3688 3 
1609 4574 3824 3 
1610 4574 4573 1 
1611 3298 4574 3 
1612 3298 3297 1 
1613 3298 3824 3 
1614 3824 1788 3 
1615 3824 3823 1 
1616 1788 4574 3 
1617 1788 1787 1 
1618 1788 3298 3 
1619 2283 2284 1 
1620 753 2283 2 
1621 4335 4336 1 
1622 3823 4335 2 
1623 2105 4441 2 
1624 2106 4846 3 
1625 2106 2105 1 
1626 17 755 2 
1627 4454 3274 3 
1628 4454 4453 1 
1629 6086 4454 3 
1630 6086 6085 1 
1631 505 2209 2 
1632 754 2786 3 
1633 754 753 1 
1634 754 4736 3 
1635 371 3273 2 
1636 4336 4736 3 
1637 24 4982 3 
1638 24 23 1 
1639 24 4406 3 
1640 24 244 3 
1641 3370 1368 3 
1642 3370 3369 1 
1643 3370 4336 3 
1644 1368 756 3 
1645 1368 1367 1 
1646 1368 4336 3 
1647 2025 2026 1 
1648 2025 3511 2 
1649 4811 4845 2 
1650 1821 3753 2 
1651 1822 4882 3 
1652 1822 1821 1 
1653 46 1748 3 
1654 46 45 1 
1655 46 524 3 
1656 5838 202 3 
1657 5838 5837 1 
1658 2830 46 3 
1659 2830 2829 1 
1660 1748 2830 3 
1661 1748 1747 1 
1662 202 3176 3 
1663 202 201 1 
1664 5634 5316 3 
1665 5316 5315 1 
1666 524 1748 3 
1667 524 523 1 
1668 524 2830 3 
1669 899 6041 2 
1670 900 899 1 
1671 4696 900 3 
1672 3176 5838 3 
1673 3176 3175 1 
1674 2764 5684 3 
1675 2764 2763 1 
1676 5734 2764 3 
1677 5734 5733 1 
1678 4090 2764 3 
1679 4090 4089 1 
1680 4090 5734 3 
1681 4090 5684 3 
1682 5684 5734 3 
1683 5684 5683 1 
1684 3982 5330 3 
1685 3982 3981 1 
1686 2573 4793 2 
1687 5018 3982 3 
1688 5018 5017 1 
1689 1447 2763 2 
1690 786 5330 3 
1691 786 785 1 
1692 786 5018 3 
1693 786 3982 3 
1694 572 571 1 
1695 60 572 3 
1696 5153 3557 2 
1697 747 3763 2 
1698 747 748 1 
1699 1253 3779 2 
1700 2296 5110 3 
1701 2296 2295 1 
1702 2279 4021 2 
1703 5110 1878 3 
1704 5110 5109 1 
1705 1878 2296 3 
1706 1878 1877 1 
1707 5956 4106 3 
1708 5956 5955 1 
1709 4106 2568 3 
1710 4106 4105 1 
1711 381 1085 2 
1712 381 382 1 
1713 2568 5956 3 
1714 2568 2567 1 
1715 3425 3426 1 
1716 1855 2631 2 
1717 2886 1376 3 
1718 2886 2885 1 
1719 1027 1028 1 
1720 721 1027 2 
1721 2811 3425 2 
1722 2885 6223 2 
1723 1796 5596 3 
1724 1796 1795 1 
1725 1796 1856 3 
1726 2129 3903 2 
1727 3316 2502 3 
1728 3316 3315 1 
1729 3316 4088 3 
1730 1067 4117 2 
1731 3483 5741 2 
1732 5597 5598 1 
1733 2921 5597 2 
1734 2502 4088 3 
1735 2502 2501 1 
1736 4088 596 3 
1737 4088 4087 1 
1738 5742 1068 3 
1739 5742 5741 1 
1740 1068 3660 3 
1741 1068 1067 1 
1742 3660 4606 3 
1743 3660 3659 1 
1744 3660 5742 3 
1745 4324 6038 3 
1746 4324 4323 1 
1747 2263 2264 1 
1748 595 2263 2 