ITEM: TIMESTEP
0
ITEM: NUMBER OF ENTRIES
8438
ITEM: BOX BOUNDS pp pp ff
0.0000000000000000e+00 5.1031036000000000e+01
0.0000000000000000e+00 5.1031036000000000e+01
-5.0000000000000000e-01 1.2500000000000000e+01
ITEM: ENTRIES index c_1[1] c_1[2] c_1[3]
1 599 1323 2 
2 2538 3466 3 
3 2538 2537 1 
4 3466 4478 3 
5 3466 3465 1 
6 4478 2538 3 
7 4478 4477 1 
8 2683 4267 2 
9 5923 5924 1 
10 5356 3200 3 
11 5356 5355 1 
12 6281 6282 1 
13 1659 5703 2 
14 6319 6320 1 
15 1234 3030 3 
16 1234 1233 1 
17 3326 1234 3 
18 3326 3325 1 
19 3030 3326 3 
20 3030 3029 1 
21 4992 770 3 
22 4992 4991 1 
23 4992 5254 3 
24 5254 4192 3 
25 5254 5253 1 
26 770 4192 3 
27 770 769 1 
28 770 5254 3 
29 3985 3986 1 
30 1705 3985 2 
31 1705 1706 1 
32 4519 4520 1 
33 3737 4519 2 
34 1369 3085 2 
35 4537 4777 2 
36 3545 5251 2 
37 1128 118 3 
38 1128 1127 1 
39 1128 2974 3 
40 3962 1128 3 
41 3962 3961 1 
42 2974 118 3 
43 2974 2973 1 
44 2974 3962 3 
45 3283 4255 2 
46 4255 4256 1 
47 269 2255 2 
48 4330 5704 3 
49 4330 4329 1 
50 5704 5580 3 
51 5704 5703 1 
52 1108 700 3 
53 700 699 1 
54 5580 4330 3 
55 5580 5579 1 
56 438 4546 3 
57 6269 6270 1 
58 1426 2810 3 
59 1426 1425 1 
60 280 2810 3 
61 280 279 1 
62 280 2092 3 
63 280 1426 3 
64 4464 2364 3 
65 4464 4463 1 
66 3822 4464 3 
67 3822 3821 1 
68 2364 3822 3 
69 2364 2363 1 
70 4192 4992 3 
71 4192 4191 1 
72 1006 5242 3 
73 1006 1005 1 
74 1370 3858 3 
75 1370 1369 1 
76 1961 4405 2 
77 5242 4368 3 
78 5242 5241 1 
79 6092 1078 3 
80 6092 6091 1 
81 3110 5388 3 
82 3110 3109 1 
83 5388 4804 3 
84 5388 5387 1 
85 2274 3110 3 
86 2274 2273 1 
87 2274 4804 3 
88 2274 5388 3 
89 4804 3110 3 
90 4804 4803 1 
91 2273 3961 2 
92 1592 5036 3 
93 3284 3283 1 
94 3284 4320 3 
95 3284 5036 3 
96 3546 3545 1 
97 3546 3614 3 
98 3546 4320 3 
99 4778 2280 3 
100 4778 4777 1 
101 5716 4778 3 
102 5716 5715 1 
103 2280 5716 3 
104 2280 2279 1 
105 2280 3764 3 
106 3764 4778 3 
107 3764 3763 1 
108 3764 5716 3 
109 5534 5894 3 
110 5894 5893 1 
111 1855 2631 2 
112 2792 1190 3 
113 2792 2791 1 
114 2792 5158 3 
115 270 2792 3 
116 270 269 1 
117 270 5158 3 
118 5158 1190 3 
119 5158 5157 1 
120 437 438 1 
121 4287 5579 2 
122 3092 3204 3 
123 3092 3091 1 
124 3092 3338 3 
125 3204 3338 3 
126 3204 3203 1 
127 2484 3204 3 
128 2484 2483 1 
129 2484 3092 3 
130 1200 878 3 
131 1200 1199 1 
132 878 3016 3 
133 878 877 1 
134 3016 1200 3 
135 3016 3015 1 
136 3338 2484 3 
137 3338 3337 1 
138 1583 3337 2 
139 2810 2092 3 
140 2810 2809 1 
141 2092 1426 3 
142 2092 2091 1 
143 2361 5519 2 
144 2363 5451 2 
145 5626 5625 1 
146 663 4191 2 
147 243 3735 2 
148 644 1658 3 
149 2949 2950 1 
150 2949 6085 2 
151 6305 6306 1 
152 785 3231 2 
153 60 572 3 
154 572 571 1 
155 2713 2714 1 
156 2713 5157 2 
157 722 1796 3 
158 722 721 1 
159 722 1856 3 
160 1856 5596 3 
161 1856 1855 1 
162 2399 3015 2 
163 2657 2931 2 
164 2658 4126 3 
165 2658 2657 1 
166 4549 4550 1 
167 1971 2809 2 
168 1847 4125 2 
169 2161 4573 2 
170 5645 5646 1 
171 3997 3998 1 
172 3997 5625 2 
173 244 4406 3 
174 244 243 1 
175 4740 1716 3 
176 4740 4739 1 
177 1716 4470 3 
178 1716 1715 1 
179 3584 984 3 
180 3584 5130 3 
181 6108 1472 3 
182 6108 6107 1 
183 2196 2195 1 
184 4634 2196 3 
185 3806 4776 3 
186 3806 3805 1 
187 4776 1302 3 
188 4776 4775 1 
189 1302 3806 3 
190 1302 1301 1 
191 1281 3091 2 
192 470 469 1 
193 2696 2695 1 
194 4550 2696 3 
195 1073 2033 2 
196 1848 1847 1 
197 2448 1848 3 
198 4395 4396 1 
199 2259 4395 2 
200 2260 4646 3 
201 2260 2259 1 
202 1216 2260 3 
203 1216 1215 1 
204 58 2260 3 
205 58 57 1 
206 58 1216 3 
207 58 4646 3 
208 4646 1216 3 
209 4646 4645 1 
210 914 3940 3 
211 914 913 1 
212 914 4482 3 
213 3940 5550 3 
214 3940 3939 1 
215 3940 4482 3 
216 5550 914 3 
217 5550 5549 1 
218 4482 5550 3 
219 4482 4481 1 
220 3583 3584 1 
221 983 3583 2 
222 62 61 1 
223 2849 5503 2 
224 1557 1558 1 
225 1557 4697 2 
226 5831 5832 1 
227 1205 5831 2 
228 3290 5008 3 
229 3290 3289 1 
230 3242 1142 3 
231 3242 3241 1 
232 809 810 1 
233 809 3377 2 
234 2108 5258 3 
235 2108 2107 1 
236 6299 6300 1 
237 1444 1443 1 
238 3954 1444 3 
239 1993 5779 2 
240 3678 3677 1 
241 1428 3678 3 
242 1428 2996 3 
243 1428 1712 3 
244 575 5791 2 
245 3883 4139 2 
246 6307 6308 1 
247 5528 3242 3 
248 5528 5527 1 
249 3803 5231 2 
250 2916 2108 3 
251 2916 2915 1 
252 2995 2996 1 
253 2995 5497 2 
254 558 1926 3 
255 558 557 1 
256 558 1780 3 
257 1926 5072 3 
258 1926 1925 1 
259 1780 5072 3 
260 1780 1779 1 
261 1780 1926 3 
262 633 2045 2 
263 1161 5571 2 
264 5572 5564 3 
265 5572 868 3 
266 5572 5571 1 
267 3884 2016 3 
268 3884 3883 1 
269 2016 1690 3 
270 2016 2015 1 
271 3909 5361 2 
272 1307 3205 2 
273 285 4073 2 
274 286 3038 3 
275 286 285 1 
276 3038 5498 3 
277 3038 3037 1 
278 5498 286 3 
279 5498 5497 1 
280 5930 4408 3 
281 5930 5929 1 
282 4408 3510 3 
283 4408 4407 1 
284 745 746 1 
285 745 3745 2 
286 5106 5105 1 
287 2018 5106 3 
288 2193 2194 1 
289 3287 4631 2 
290 5168 1642 3 
291 5168 5167 1 
292 4301 5167 2 
293 1642 4632 3 
294 1642 1641 1 
295 1786 1785 1 
296 4985 5199 2 
297 3510 5930 3 
298 3510 3509 1 
299 2735 3037 2 
300 954 5120 3 
301 954 953 1 
302 1422 954 3 
303 1422 1421 1 
304 5120 1422 3 
305 5120 5119 1 
306 6277 6278 1 
307 4761 4762 1 
308 4761 5521 2 
309 4233 4234 1 
310 4233 5657 2 
311 4632 5168 3 
312 4632 4631 1 
313 4197 2109 2 
314 2064 4100 3 
315 3860 3446 3 
316 3860 4384 3 
317 4384 4383 1 
318 3446 3445 1 
319 3446 4384 3 
320 3446 4640 3 
321 1378 4498 3 
322 1378 1377 1 
323 3859 3860 1 
324 3859 4383 2 
325 6208 1378 3 
326 6208 6207 1 
327 4498 6208 3 
328 4498 4497 1 
329 1770 1936 3 
330 1770 1769 1 
331 1770 5530 3 
332 1770 2136 3 
333 1936 5530 3 
334 1936 1935 1 
335 5530 2136 3 
336 5530 5529 1 
337 2136 1936 3 
338 2136 2135 1 
339 5200 420 3 
340 5200 5199 1 
341 4856 5200 3 
342 4856 4855 1 
343 420 4856 3 
344 420 419 1 
345 420 2452 3 
346 1769 2781 2 
347 2781 2782 1 
348 2758 2536 3 
349 2580 254 3 
350 2580 2579 1 
351 2782 4362 3 
352 953 4153 2 
353 6279 6280 1 
354 1321 5275 2 
355 5657 5658 1 
356 92 4208 3 
357 92 91 1 
358 92 1616 3 
359 1616 4208 3 
360 1616 2656 3 
361 2656 92 3 
362 2656 2655 1 
363 839 1515 2 
364 866 1024 3 
365 866 865 1 
366 3526 866 3 
367 3526 3525 1 
368 1024 3526 3 
369 1024 1023 1 
370 2063 3445 2 
371 2063 2064 1 
372 4706 3848 3 
373 4706 4705 1 
374 4706 5612 3 
375 3303 4497 2 
376 4334 5612 3 
377 4334 4333 1 
378 4334 4706 3 
379 3848 4334 3 
380 3848 3847 1 
381 5612 3848 3 
382 5612 5611 1 
383 5180 1054 3 
384 4466 684 3 
385 4466 4465 1 
386 4361 4475 2 
387 1843 2327 2 
388 292 291 1 
389 2550 292 3 
390 5536 938 3 
391 5536 5535 1 
392 2869 1755 2 
393 3464 5828 3 
394 3464 3463 1 
395 5828 2526 3 
396 5828 5827 1 
397 1516 3936 3 
398 1516 1515 1 
399 4137 4171 2 
400 4171 4172 1 
401 6321 6322 1 
402 70 4974 3 
403 70 69 1 
404 70 5932 3 
405 70 4224 3 
406 684 374 3 
407 684 683 1 
408 374 4466 3 
409 374 373 1 
410 683 6211 2 
411 2487 2488 1 
412 2487 6199 2 
413 1844 1152 3 
414 1844 1843 1 
415 4972 1844 3 
416 4972 4971 1 
417 1152 4972 3 
418 1152 1151 1 
419 3193 5661 2 
420 3475 3749 2 
421 1603 4127 2 
422 672 72 3 
423 672 671 1 
424 2277 5621 2 
425 4258 4312 3 
426 4258 4257 1 
427 4312 3958 3 
428 4312 4311 1 
429 4242 4241 1 
430 3957 5091 2 
431 6301 6302 1 
432 6104 1080 3 
433 6104 6103 1 
434 69 861 2 
435 4365 2155 2 
436 4366 2156 3 
437 4366 4365 1 
438 4826 3750 3 
439 4826 4825 1 
440 1694 4826 3 
441 1694 1693 1 
442 1694 3344 3 
443 3344 4826 3 
444 3344 3343 1 
445 3344 3750 3 
446 3750 1694 3 
447 3750 3749 1 
448 5621 5622 1 
449 1396 2684 3 
450 1396 1395 1 
451 3018 1396 3 
452 3018 3017 1 
453 2684 3018 3 
454 2684 2683 1 
455 813 3115 2 
456 497 498 1 
457 497 4555 2 
458 1341 3977 2 
459 4119 6057 2 
460 652 5224 3 
461 652 651 1 
462 2115 3367 2 
463 2115 2116 1 
464 2752 652 3 
465 2752 2751 1 
466 5312 5311 1 
467 5490 5312 3 
468 5224 2752 3 
469 5224 5223 1 
470 670 600 3 
471 670 669 1 
472 1562 670 3 
473 1562 1561 1 
474 600 1562 3 
475 600 599 1 
476 579 3049 2 
477 2661 3921 2 
478 669 5801 2 
479 4557 5551 2 
480 1364 1363 1 
481 1364 3396 3 
482 1364 5568 3 
483 6317 6318 1 
484 2537 4369 2 
485 2662 196 3 
486 2662 2661 1 
487 3396 5568 3 
488 2040 1364 3 
489 2040 3396 3 
490 4420 5568 3 
491 1724 2662 3 
492 1724 1723 1 
493 220 4420 3 
494 220 2040 3 
495 220 2662 3 
496 196 1724 3 
497 196 195 1 
498 196 4420 3 
499 4892 2994 3 
500 4892 4891 1 
501 4892 5318 3 
502 1076 4892 3 
503 1076 1075 1 
504 1076 5318 3 
505 5318 2994 3 
506 5318 5317 1 
507 2994 1076 3 
508 2994 2993 1 
509 1165 5495 2 
510 85 2151 2 
511 5539 5540 1 
512 1166 5896 3 
513 1166 1165 1 
514 2390 1166 3 
515 2390 2389 1 
516 2390 5896 3 
517 818 817 1 
518 361 5539 2 
519 4667 5463 2 
520 5328 436 3 
521 1790 5328 3 
522 1790 3944 3 
523 2983 5781 2 
524 1570 1166 3 
525 1570 1569 1 
526 1570 2390 3 
527 5896 1570 3 
528 5896 5895 1 
529 5781 5782 1 
530 436 435 1 
531 436 3944 3 
532 436 1790 3 
533 3787 4943 2 
534 3944 5328 3 
535 4943 4944 1 
536 4528 818 3 
537 1789 1790 1 
538 414 2806 3 
539 414 413 1 
540 6068 1240 3 
541 6068 2596 3 
542 6068 6067 1 
543 413 2889 2 
544 4483 4484 1 
545 4483 6169 2 
546 2007 4547 2 
547 1587 6067 2 
548 2230 5720 3 
549 2230 2229 1 
550 5720 5146 3 
551 5720 5719 1 
552 5146 2230 3 
553 5146 5145 1 
554 1862 5146 3 
555 1862 1861 1 
556 1862 5720 3 
557 1862 2230 3 
558 821 1819 2 
559 4685 4805 2 
560 2229 2323 2 
561 2324 882 3 
562 2324 2323 1 
563 2324 5332 3 
564 2324 3800 3 
565 882 5332 3 
566 882 881 1 
567 432 860 3 
568 432 431 1 
569 4402 4401 1 
570 2444 2554 3 
571 2444 2443 1 
572 3428 1486 3 
573 3428 3427 1 
574 4222 3428 3 
575 4222 4221 1 
576 1486 4222 3 
577 1486 1485 1 
578 431 3513 2 
579 3116 3115 1 
580 4262 3116 3 
581 4221 5121 2 
582 4966 4268 3 
583 4966 4965 1 
584 4268 834 3 
585 4268 4267 1 
586 834 4966 3 
587 834 833 1 
588 5689 5690 1 
589 881 5689 2 
590 957 2523 2 
591 2523 2524 1 
592 2077 2553 2 
593 2577 2881 2 
594 2882 2912 3 
595 2882 2881 1 
596 155 3661 2 
597 4444 66 3 
598 4444 4443 1 
599 2190 2648 3 
600 2190 2189 1 
601 2648 156 3 
602 2648 2647 1 
603 156 610 3 
604 156 155 1 
605 156 2190 3 
606 610 2648 3 
607 610 609 1 
608 610 2190 3 
609 2698 4444 3 
610 2698 2697 1 
611 4120 4119 1 
612 618 3986 3 
613 618 4310 3 
614 618 4120 3 
615 3362 5002 3 
616 3362 3361 1 
617 3362 3662 3 
618 5002 3612 3 
619 5002 5001 1 
620 2287 5435 2 
621 3457 4025 2 
622 3009 3010 1 
623 3009 3453 2 
624 3010 5436 3 
625 3010 4568 3 
626 2744 3738 3 
627 315 815 2 
628 4310 4120 3 
629 3986 4310 3 
630 3986 4120 3 
631 4462 3086 3 
632 4462 4461 1 
633 3950 4462 3 
634 3950 3949 1 
635 3335 4723 2 
636 2778 1000 3 
637 2778 2777 1 
638 2778 5196 3 
639 3086 3950 3 
640 3086 3085 1 
641 5196 816 3 
642 5196 5195 1 
643 1000 816 3 
644 1000 999 1 
645 1000 5196 3 
646 816 2778 3 
647 816 815 1 
648 6287 6288 1 
649 3361 6137 2 
650 4723 4724 1 
651 3211 4309 2 
652 4309 4310 1 
653 4568 5436 3 
654 873 1029 2 
655 4724 4394 3 
656 4592 1038 3 
657 4592 4591 1 
658 5098 5606 3 
659 5606 3212 3 
660 5606 5605 1 
661 3212 3586 3 
662 3212 3211 1 
663 3212 5098 3 
664 3586 5606 3 
665 3586 3585 1 
666 3310 3494 3 
667 1038 2742 3 
668 1038 1037 1 
669 1762 2520 3 
670 1762 1761 1 
671 1948 1762 3 
672 1948 1947 1 
673 2742 4592 3 
674 2742 2741 1 
675 2729 5923 2 
676 2226 580 3 
677 2226 2225 1 
678 4558 2226 3 
679 4558 4557 1 
680 138 2226 3 
681 138 137 1 
682 138 4558 3 
683 580 138 3 
684 580 579 1 
685 580 4558 3 
686 713 3989 2 
687 736 1324 3 
688 736 735 1 
689 1324 228 3 
690 1324 1323 1 
691 228 736 3 
692 228 227 1 
693 1261 5139 2 
694 4419 4420 1 
695 2039 2040 1 
696 2039 4419 2 
697 2087 4023 2 
698 3050 3049 1 
699 3497 4975 2 
700 1111 1112 1 
701 1111 2471 2 
702 2336 454 3 
703 2336 2335 1 
704 266 3050 3 
705 454 5012 3 
706 454 453 1 
707 1075 5277 2 
708 2249 3465 2 
709 6084 5356 3 
710 6084 6083 1 
711 1923 5427 2 
712 3200 6084 3 
713 3200 3199 1 
714 4369 4370 1 
715 5012 2336 3 
716 5012 5011 1 
717 219 220 1 
718 219 4269 2 
719 4370 6106 3 
720 515 2993 2 
721 6106 6105 1 
722 2250 2146 3 
723 2250 2249 1 
724 1147 6083 2 
725 3498 4588 3 
726 3498 3497 1 
727 3498 5252 3 
728 4256 1678 3 
729 1678 1677 1 
730 5496 5244 3 
731 5496 5495 1 
732 2894 1410 3 
733 2894 2893 1 
734 2894 5244 3 
735 2894 5496 3 
736 5244 1410 3 
737 5244 5243 1 
738 1410 5496 3 
739 1410 1409 1 
740 1337 1338 1 
741 1337 1489 2 
742 602 402 3 
743 402 401 1 
744 402 2256 3 
745 402 1804 3 
746 2020 248 3 
747 248 247 1 
748 248 2256 3 
749 248 1804 3 
750 1804 2256 3 
751 1655 1656 1 
752 569 570 1 
753 569 1655 2 
754 1338 2020 3 
755 247 1107 2 
756 1107 1108 1 
757 2130 606 3 
758 2130 2129 1 
759 2130 3708 3 
760 4388 2130 3 
761 4388 4387 1 
762 3708 4388 3 
763 3708 3707 1 
764 5299 5300 1 
765 157 1535 2 
766 606 4388 3 
767 606 605 1 
768 606 3708 3 
769 4526 362 3 
770 4526 4525 1 
771 362 3728 3 
772 362 361 1 
773 3728 4526 3 
774 3728 3727 1 
775 158 3728 3 
776 158 157 1 
777 158 362 3 
778 158 4526 3 
779 5782 2984 3 
780 2984 2983 1 
781 1490 1489 1 
782 4392 1098 3 
783 4392 4391 1 
784 5464 4392 3 
785 5464 5463 1 
786 1098 5464 3 
787 1098 1097 1 
788 1098 5670 3 
789 3788 3787 1 
790 4944 3788 3 
791 4944 5300 3 
792 5300 5464 3 
793 1109 3843 2 
794 817 4503 2 
795 1588 2898 3 
796 1588 1587 1 
797 2898 2890 3 
798 2898 2897 1 
799 1309 1310 1 
800 1309 1789 2 
801 4548 4504 3 
802 4548 4547 1 
803 4504 2174 3 
804 4504 4503 1 
805 2174 4548 3 
806 2174 2173 1 
807 2890 1588 3 
808 2890 2889 1 
809 2173 3257 2 
810 3768 2174 3 
811 3768 3767 1 
812 3768 4504 3 
813 3768 4548 3 
814 5074 2010 3 
815 5074 5073 1 
816 2010 822 3 
817 2010 2009 1 
818 5378 4402 3 
819 6257 6258 1 
820 3514 2050 3 
821 3514 3513 1 
822 3514 4564 3 
823 3514 5680 3 
824 5680 2050 3 
825 5680 5679 1 
826 2050 4564 3 
827 2050 2049 1 
828 4564 5680 3 
829 4564 4563 1 
830 4261 4262 1 
831 1277 1278 1 
832 1277 4261 2 
833 251 1233 2 
834 5057 1937 2 
835 4867 4868 1 
836 2771 5029 2 
837 2207 3107 2 
838 1355 5475 2 
839 5475 5476 1 
840 4447 4448 1 
841 4447 4725 2 
842 1917 3433 2 
843 296 295 1 
844 4468 3120 3 
845 4468 4467 1 
846 4991 6097 2 
847 3434 2882 3 
848 3434 3433 1 
849 2912 3434 3 
850 2912 2911 1 
851 783 1777 2 
852 3119 5543 2 
853 2247 6133 2 
854 2647 5441 2 
855 5253 6027 2 
856 6027 6028 1 
857 3662 5002 3 
858 3612 3362 3 
859 3612 3611 1 
860 5994 5993 1 
861 2500 3662 3 
862 2500 3612 3 
863 2500 5994 3 
864 1778 5994 3 
865 3661 3662 1 
866 1777 1778 1 
867 653 961 2 
868 5436 5435 1 
869 1580 5436 3 
870 1580 3010 3 
871 1580 3862 3 
872 3738 3737 1 
873 3738 3862 3 
874 3585 5605 2 
875 183 779 2 
876 409 410 1 
877 409 5993 2 
878 1706 5994 3 
879 1706 1778 3 
880 617 618 1 
881 617 1077 2 
882 2499 2500 1 
883 2499 5861 2 
884 930 3336 3 
885 930 929 1 
886 3336 4894 3 
887 3336 3335 1 
888 3862 4568 3 
889 3443 3611 2 
890 1663 4461 2 
891 2058 5732 3 
892 2058 2057 1 
893 5732 546 3 
894 5732 5731 1 
895 1639 4367 2 
896 1639 1640 1 
897 1640 526 3 
898 3083 3084 1 
899 1037 2383 2 
900 1041 3083 2 
901 4124 5724 3 
902 4124 4123 1 
903 3880 4124 3 
904 3880 3879 1 
905 3880 4552 3 
906 3880 5724 3 
907 5724 4552 3 
908 5724 5723 1 
909 4552 4124 3 
910 4552 4551 1 
911 526 525 1 
912 826 4200 3 
913 826 825 1 
914 4200 1440 3 
915 4200 4199 1 
916 2088 1070 3 
917 2088 2087 1 
918 3819 5513 2 
919 3900 2088 3 
920 3900 3899 1 
921 1070 3900 3 
922 1070 1069 1 
923 1440 826 3 
924 1440 1439 1 
925 3084 1432 3 
926 1432 1431 1 
927 1439 3265 2 
928 2053 2054 1 
929 2053 2723 2 
930 2314 4924 3 
931 2314 2313 1 
932 5380 2314 3 
933 5380 5379 1 
934 1268 5802 3 
935 1268 1267 1 
936 4618 1268 3 
937 4618 4617 1 
938 5802 4618 3 
939 5802 5801 1 
940 2225 5075 2 
941 525 987 2 
942 3489 3490 1 
943 4254 3136 3 
944 4254 4253 1 
945 4254 6116 3 
946 1262 5278 3 
947 1262 1261 1 
948 4538 4254 3 
949 4538 4537 1 
950 4538 6116 3 
951 227 5387 2 
952 5508 5507 1 
953 3490 5508 3 
954 2070 5076 3 
955 2070 2069 1 
956 892 2070 3 
957 892 891 1 
958 892 1112 3 
959 858 1824 3 
960 858 857 1 
961 858 1628 3 
962 858 2670 3 
963 2670 1628 3 
964 2670 2669 1 
965 1824 2670 3 
966 1824 1823 1 
967 1628 1824 3 
968 1628 1627 1 
969 5278 1924 3 
970 5278 5277 1 
971 1591 5355 2 
972 1591 1592 1 
973 118 3962 3 
974 118 117 1 
975 891 2393 2 
976 1924 1262 3 
977 1924 1923 1 
978 4588 6216 3 
979 4588 4587 1 
980 4588 5252 3 
981 5252 6216 3 
982 5252 5251 1 
983 6216 3498 3 
984 6216 6215 1 
985 735 1127 2 
986 453 3127 2 
987 1627 3135 2 
988 4146 3046 3 
989 4146 4145 1 
990 3046 3932 3 
991 3046 3045 1 
992 3932 4146 3 
993 3932 3931 1 
994 2255 2256 1 
995 231 4785 2 
996 801 802 1 
997 801 4145 2 
998 4246 5428 3 
999 4246 4245 1 
1000 5428 2740 3 
1001 5428 5427 1 
1002 2740 4246 3 
1003 2740 2739 1 
1004 601 602 1 
1005 601 3199 2 
1006 2893 6215 2 
1007 1803 1804 1 
1008 1803 2157 2 
1009 3983 5893 2 
1010 911 1409 2 
1011 4329 4391 2 
1012 2791 4133 2 
1013 2129 3903 2 
1014 570 5410 3 
1015 5410 5409 1 
1016 299 300 1 
1017 299 2969 2 
1018 605 4245 2 
1019 6265 6266 1 
1020 4546 4545 1 
1021 1536 5704 3 
1022 1536 1535 1 
1023 1536 4330 3 
1024 1536 5580 3 
1025 681 1199 2 
1026 589 3529 2 
1027 5502 3472 3 
1028 5502 5501 1 
1029 3530 4176 3 
1030 3530 3529 1 
1031 3530 5502 3 
1032 4918 682 3 
1033 1807 3707 2 
1034 4970 310 3 
1035 4970 4969 1 
1036 699 3321 2 
1037 1808 1807 1 
1038 1808 3166 3 
1039 1869 1870 1 
1040 590 4970 3 
1041 590 589 1 
1042 3844 590 3 
1043 3844 3843 1 
1044 3844 4970 3 
1045 310 590 3 
1046 310 309 1 
1047 310 3844 3 
1048 3394 2112 3 
1049 1660 1659 1 
1050 1660 3394 3 
1051 1660 1808 3 
1052 2112 2111 1 
1053 2112 1660 3 
1054 2112 3166 3 
1055 3166 3165 1 
1056 3166 3394 3 
1057 3059 4969 2 
1058 3165 3695 2 
1059 1608 1808 3 
1060 1469 3325 2 
1061 1667 4563 2 
1062 3821 4463 2 
1063 1668 2362 3 
1064 1668 1667 1 
1065 1470 908 3 
1066 1470 1469 1 
1067 1470 3060 3 
1068 1470 2600 3 
1069 100 5590 3 
1070 100 99 1 
1071 100 4758 3 
1072 908 2600 3 
1073 908 907 1 
1074 5590 3618 3 
1075 5590 5589 1 
1076 3618 100 3 
1077 3618 3617 1 
1078 3618 4758 3 
1079 4758 5590 3 
1080 4758 4757 1 
1081 2091 1425 2 
1082 3696 5520 3 
1083 3696 3695 1 
1084 1584 1668 3 
1085 1584 1583 1 
1086 279 1967 2 
1087 3831 3951 2 
1088 1920 1510 3 
1089 1920 1919 1 
1090 4034 296 3 
1091 3244 1894 3 
1092 3244 3243 1 
1093 2208 3244 3 
1094 2208 2207 1 
1095 1894 2208 3 
1096 1894 1893 1 
1097 252 251 1 
1098 1510 1960 3 
1099 1510 1509 1 
1100 1960 1920 3 
1101 1960 1959 1 
1102 2119 4273 2 
1103 2991 3029 2 
1104 2992 5790 3 
1105 2992 2991 1 
1106 2992 6122 3 
1107 6122 3952 3 
1108 6122 6121 1 
1109 3952 2992 3 
1110 3952 3951 1 
1111 6325 6326 1 
1112 5790 3952 3 
1113 5790 5789 1 
1114 5790 6122 3 
1115 2748 2788 3 
1116 2748 2747 1 
1117 1968 2310 3 
1118 1968 1967 1 
1119 5476 252 3 
1120 1050 4468 3 
1121 1050 1049 1 
1122 1918 1968 3 
1123 1918 1917 1 
1124 5789 6179 2 
1125 2310 1918 3 
1126 2310 2309 1 
1127 1475 1509 2 
1128 504 3120 3 
1129 504 503 1 
1130 504 1050 3 
1131 504 4468 3 
1132 3120 1050 3 
1133 3120 3119 1 
1134 4929 5633 2 
1135 627 4933 2 
1136 5633 5634 1 
1137 769 4955 2 
1138 4955 4956 1 
1139 4050 3640 3 
1140 4050 4049 1 
1141 654 1962 3 
1142 654 653 1 
1143 654 3640 3 
1144 654 4050 3 
1145 1962 4050 3 
1146 1962 1961 1 
1147 664 663 1 
1148 3640 1962 3 
1149 3640 3639 1 
1150 531 1399 2 
1151 3467 3468 1 
1152 3467 3841 2 
1153 3841 3842 1 
1154 6263 6264 1 
1155 546 2058 3 
1156 546 545 1 
1157 5634 5316 3 
1158 532 531 1 
1159 3468 532 3 
1160 410 4520 3 
1161 410 1370 3 
1162 410 3468 3 
1163 3858 5892 3 
1164 3858 3857 1 
1165 3858 4520 3 
1166 4368 1006 3 
1167 4368 4367 1 
1168 1078 184 3 
1169 1078 1077 1 
1170 1078 2692 3 
1171 2692 6092 3 
1172 2692 2691 1 
1173 184 6092 3 
1174 184 183 1 
1175 184 2692 3 
1176 4520 5892 3 
1177 5892 1370 3 
1178 5892 5891 1 
1179 5316 5315 1 
1180 545 3411 2 
1181 1257 2459 2 
1182 2691 3857 2 
1183 4490 468 3 
1184 4490 4489 1 
1185 3444 4490 3 
1186 3444 3443 1 
1187 1042 3444 3 
1188 1042 1041 1 
1189 1042 4490 3 
1190 468 3444 3 
1191 468 467 1 
1192 468 1042 3 
1193 1664 4752 3 
1194 1664 1663 1 
1195 1664 4202 3 
1196 4202 4752 3 
1197 4202 4201 1 
1198 50 1664 3 
1199 50 49 1 
1200 50 4202 3 
1201 988 5384 3 
1202 988 987 1 
1203 3162 988 3 
1204 3162 3161 1 
1205 5384 3162 3 
1206 5384 5383 1 
1207 372 102 3 
1208 372 371 1 
1209 372 2460 3 
1210 2460 102 3 
1211 2460 2459 1 
1212 2460 3736 3 
1213 1069 4201 2 
1214 467 2449 2 
1215 4253 4617 2 
1216 49 2313 2 
1217 3136 4538 3 
1218 3136 3135 1 
1219 3136 6116 3 
1220 3109 4695 2 
1221 5718 5717 1 
1222 5922 1942 3 
1223 5922 5921 1 
1224 3520 5922 3 
1225 3520 3519 1 
1226 4803 5919 2 
1227 2438 3520 3 
1228 2438 2437 1 
1229 2438 5922 3 
1230 1942 3520 3 
1231 1942 1941 1 
1232 1942 2438 3 
1233 5770 5718 3 
1234 5533 5534 1 
1235 4320 4319 1 
1236 5036 5035 1 
1237 5036 3546 3 
1238 3614 3284 3 
1239 3614 4320 3 
1240 2857 5769 2 
1241 4021 4022 1 
1242 2279 4021 2 
1243 2669 5717 2 
1244 5769 5770 1 
1245 747 3763 2 
1246 747 748 1 
1247 1941 5061 2 
1248 3003 3045 2 
1249 232 5712 3 
1250 232 231 1 
1251 232 912 3 
1252 2858 232 3 
1253 2858 2857 1 
1254 5712 2858 3 
1255 5712 5711 1 
1256 397 5035 2 
1257 912 2858 3 
1258 912 911 1 
1259 912 5712 3 
1260 2445 2739 2 
1261 1086 2300 3 
1262 1086 1085 1 
1263 1086 4786 3 
1264 4786 1452 3 
1265 4786 4785 1 
1266 2300 1452 3 
1267 2300 2299 1 
1268 2300 4786 3 
1269 3613 3614 1 
1270 3613 4319 2 
1271 117 6123 2 
1272 3671 6025 2 
1273 6025 6026 1 
1274 2075 5943 2 
1275 2632 4134 3 
1276 2632 2631 1 
1277 1190 270 3 
1278 1190 1189 1 
1279 1027 1028 1 
1280 721 1027 2 
1281 1571 2645 2 
1282 1571 1572 1 
1283 682 681 1 
1284 3483 5741 2 
1285 2502 4088 3 
1286 2502 2501 1 
1287 596 2502 3 
1288 596 595 1 
1289 596 3316 3 
1290 2140 150 3 
1291 2140 2139 1 
1292 2909 4281 2 
1293 150 2910 3 
1294 150 149 1 
1295 978 2552 3 
1296 978 977 1 
1297 2552 2664 3 
1298 2552 2551 1 
1299 2910 2140 3 
1300 2910 2909 1 
1301 5966 4288 3 
1302 5966 5965 1 
1303 4288 3704 3 
1304 4288 4287 1 
1305 3786 5966 3 
1306 3786 3785 1 
1307 3786 4288 3 
1308 2551 3397 2 
1309 6224 2922 3 
1310 6224 6223 1 
1311 2932 2922 3 
1312 2932 2931 1 
1313 2932 6224 3 
1314 2922 3692 3 
1315 2922 2921 1 
1316 2111 3703 2 
1317 3692 2932 3 
1318 3692 3691 1 
1319 3692 6224 3 
1320 3704 5966 3 
1321 3704 3703 1 
1322 3704 3786 3 
1323 595 2263 2 
1324 2263 2264 1 
1325 3104 3148 3 
1326 3104 3103 1 
1327 2086 3104 3 
1328 2086 2085 1 
1329 3148 2086 3 
1330 3148 3147 1 
1331 273 2501 2 
1332 3647 4147 2 
1333 2362 1584 3 
1334 2362 2361 1 
1335 626 5728 3 
1336 626 3696 3 
1337 626 5520 3 
1338 5728 3696 3 
1339 5728 5727 1 
1340 2085 3243 2 
1341 284 3648 3 
1342 284 283 1 
1343 284 3398 3 
1344 284 6004 3 
1345 3648 3398 3 
1346 3648 3647 1 
1347 6004 3648 3 
1348 6004 6003 1 
1349 3398 6004 3 
1350 3398 3397 1 
1351 1972 4566 3 
1352 1972 1971 1 
1353 5452 1972 3 
1354 5452 5451 1 
1355 2787 5143 2 
1356 5520 5728 3 
1357 5520 5519 1 
1358 1919 5589 2 
1359 4534 2456 3 
1360 4534 4533 1 
1361 1636 400 3 
1362 1636 1635 1 
1363 1636 4534 3 
1364 400 2456 3 
1365 400 399 1 
1366 400 4534 3 
1367 2456 1636 3 
1368 2456 2455 1 
1369 2120 944 3 
1370 2120 2119 1 
1371 1366 2120 3 
1372 1366 1365 1 
1373 944 1366 3 
1374 944 943 1 
1375 2892 1972 3 
1376 2892 2891 1 
1377 2892 5452 3 
1378 4566 2892 3 
1379 4566 4565 1 
1380 4566 5452 3 
1381 943 3063 2 
1382 2325 2887 2 
1383 2887 2888 1 
1384 3998 5626 3 
1385 2326 2748 3 
1386 2326 2325 1 
1387 3523 5889 2 
1388 2309 5049 2 
1389 3047 5927 2 
1390 687 5393 2 
1391 2891 4075 2 
1392 2788 2326 3 
1393 2788 2787 1 
1394 5393 5394 1 
1395 5459 6121 2 
1396 2785 4055 2 
1397 2106 4846 3 
1398 2106 2105 1 
1399 1016 2106 3 
1400 1016 1015 1 
1401 1212 664 3 
1402 2527 4347 2 
1403 3274 6086 3 
1404 3274 3273 1 
1405 4454 3274 3 
1406 4454 4453 1 
1407 6086 4454 3 
1408 6086 6085 1 
1409 1211 1747 2 
1410 1211 1212 1 
1411 4406 4982 3 
1412 4406 4405 1 
1413 4982 244 3 
1414 4982 4981 1 
1415 1658 1657 1 
1416 24 4982 3 
1417 24 23 1 
1418 24 4406 3 
1419 24 244 3 
1420 4344 4343 1 
1421 4731 4981 2 
1422 2473 2474 1 
1423 2473 2829 2 
1424 371 3273 2 
1425 3736 372 3 
1426 3736 3735 1 
1427 2871 2872 1 
1428 5838 202 3 
1429 5838 5837 1 
1430 643 644 1 
1431 643 2871 2 
1432 202 3176 3 
1433 202 201 1 
1434 3176 5838 3 
1435 3176 3175 1 
1436 3412 1120 3 
1437 3412 3411 1 
1438 1120 344 3 
1439 1120 1119 1 
1440 344 3412 3 
1441 344 343 1 
1442 102 3736 3 
1443 102 101 1 
1444 101 5599 2 
1445 1119 4727 2 
1446 2872 1448 3 
1447 3232 5136 3 
1448 3232 3231 1 
1449 4728 3232 3 
1450 4728 4727 1 
1451 5136 4728 3 
1452 5136 5135 1 
1453 965 2195 2 
1454 4089 5135 2 
1455 59 60 1 
1456 59 165 2 
1457 5307 5921 2 
1458 5308 1736 3 
1459 5308 5307 1 
1460 2714 5308 3 
1461 2299 5715 2 
1462 1274 5308 3 
1463 1274 1273 1 
1464 1274 2714 3 
1465 1736 1274 3 
1466 1736 1735 1 
1467 1736 2714 3 
1468 3557 5153 2 
1469 381 1085 2 
1470 381 382 1 
1471 3004 398 3 
1472 3004 3003 1 
1473 3004 3142 3 
1474 398 3698 3 
1475 398 397 1 
1476 3698 3004 3 
1477 3698 3697 1 
1478 1796 5596 3 
1479 1796 1795 1 
1480 1796 1856 3 
1481 5596 722 3 
1482 5596 5595 1 
1483 1301 3805 2 
1484 1189 4459 2 
1485 3293 3294 1 
1486 1455 3293 2 
1487 1795 2295 2 
1488 4559 6045 2 
1489 6045 6046 1 
1490 6046 2812 3 
1491 4088 596 3 
1492 4088 4087 1 
1493 2181 3203 2 
1494 3316 2502 3 
1495 3316 3315 1 
1496 3316 4088 3 
1497 2483 4079 2 
1498 1697 3147 2 
1499 4281 4282 1 
1500 6293 6294 1 
1501 6303 6304 1 
1502 2182 4148 3 
1503 2182 2181 1 
1504 2182 3752 3 
1505 4148 4516 3 
1506 4148 4147 1 
1507 4516 2182 3 
1508 4516 4515 1 
1509 3752 4148 3 
1510 3752 3751 1 
1511 3752 4516 3 
1512 3315 5069 2 
1513 5069 5070 1 
1514 5597 5598 1 
1515 2406 720 3 
1516 2406 2405 1 
1517 720 1362 3 
1518 720 719 1 
1519 1362 2406 3 
1520 1362 1361 1 
1521 4126 2400 3 
1522 4126 4125 1 
1523 2400 2658 3 
1524 2400 2399 1 
1525 283 4549 2 
1526 2921 5597 2 
1527 2837 4565 2 
1528 3297 4299 2 
1529 399 4995 2 
1530 1533 2455 2 
1531 5060 5144 3 
1532 5060 5460 3 
1533 5144 3064 3 
1534 5144 5143 1 
1535 5928 3248 3 
1536 5460 5144 3 
1537 5460 5459 1 
1538 3064 5460 3 
1539 3064 3063 1 
1540 3064 5394 3 
1541 5394 5928 3 
1542 5927 5928 1 
1543 5646 3480 3 
1544 1044 1043 1 
1545 1044 5646 3 
1546 1044 2534 3 
1547 3248 3247 1 
1548 3248 5394 3 
1549 3248 5060 3 
1550 2534 2533 1 
1551 2534 5646 3 
1552 3246 622 3 
1553 3246 3245 1 
1554 3246 5614 3 
1555 5890 3246 3 
1556 5890 5889 1 
1557 3813 4029 2 
1558 622 5890 3 
1559 622 621 1 
1560 622 5614 3 
1561 2769 5059 2 
1562 5059 5060 1 
1563 3105 5217 2 
1564 788 2162 3 
1565 788 787 1 
1566 2162 1246 3 
1567 2162 2161 1 
1568 2162 3154 3 
1569 3976 830 3 
1570 3976 3975 1 
1571 3106 3976 3 
1572 3106 3105 1 
1573 1246 788 3 
1574 1246 1245 1 
1575 1246 3154 3 
1576 3154 788 3 
1577 3154 3153 1 
1578 2770 3976 3 
1579 2770 2769 1 
1580 2770 3106 3 
1581 5614 5890 3 
1582 5614 5613 1 
1583 23 829 2 
1584 3153 5093 2 
1585 4453 5699 2 
1586 2950 4344 3 
1587 1748 2830 3 
1588 1748 1747 1 
1589 2830 46 3 
1590 2830 2829 1 
1591 971 972 1 
1592 971 5837 2 
1593 4347 4348 1 
1594 46 1748 3 
1595 46 45 1 
1596 46 524 3 
1597 2224 5650 3 
1598 2224 2223 1 
1599 766 2224 3 
1600 766 765 1 
1601 766 5650 3 
1602 216 2224 3 
1603 216 215 1 
1604 216 766 3 
1605 5129 5130 1 
1606 343 5129 2 
1607 3134 920 3 
1608 5650 216 3 
1609 5650 5649 1 
1610 4470 4740 3 
1611 4470 4469 1 
1612 164 984 3 
1613 164 5130 3 
1614 164 3584 3 
1615 984 983 1 
1616 984 5130 3 
1617 1343 5651 2 
1618 163 164 1 
1619 163 4155 2 
1620 571 2905 2 
1621 1472 1610 3 
1622 1472 1471 1 
1623 1610 6108 3 
1624 1610 1609 1 
1625 4677 4739 2 
1626 341 5733 2 
1627 5018 3982 3 
1628 5018 5017 1 
1629 1735 1273 2 
1630 4633 4634 1 
1631 786 5330 3 
1632 786 785 1 
1633 786 5018 3 
1634 786 3982 3 
1635 3982 5330 3 
1636 3982 3981 1 
1637 5330 5018 3 
1638 5330 5329 1 
1639 5109 6053 2 
1640 6008 5586 3 
1641 6008 6007 1 
1642 3372 6008 3 
1643 3372 3371 1 
1644 608 3372 3 
1645 608 607 1 
1646 608 5586 3 
1647 608 6008 3 
1648 349 5467 2 
1649 5586 3372 3 
1650 5586 5585 1 
1651 3251 6187 2 
1652 5110 1878 3 
1653 5110 5109 1 
1654 2296 5110 3 
1655 2296 2295 1 
1656 3620 5274 3 
1657 3620 3619 1 
1658 3620 4450 3 
1659 192 5274 3 
1660 192 191 1 
1661 192 3620 3 
1662 2099 5901 2 
1663 4560 4698 3 
1664 4560 4559 1 
1665 4698 6094 3 
1666 4698 4697 1 
1667 6094 4560 3 
1668 6094 6093 1 
1669 3882 4070 3 
1670 3882 3881 1 
1671 3882 5902 3 
1672 2100 1782 3 
1673 2100 2099 1 
1674 2100 3114 3 
1675 1401 4087 2 
1676 6329 6330 1 
1677 4676 3882 3 
1678 4676 4675 1 
1679 4676 5902 3 
1680 4070 4676 3 
1681 4070 4069 1 
1682 411 1771 2 
1683 2103 5007 2 
1684 1282 1018 3 
1685 1282 1281 1 
1686 1282 1718 3 
1687 1282 2094 3 
1688 1718 2094 3 
1689 1718 1717 1 
1690 2094 1018 3 
1691 2094 2093 1 
1692 1018 1718 3 
1693 1018 1017 1 
1694 412 82 3 
1695 412 411 1 
1696 412 5480 3 
1697 565 719 2 
1698 6221 6222 1 
1699 1361 6221 2 
1700 1564 470 3 
1701 819 4165 2 
1702 2838 3840 3 
1703 2838 2837 1 
1704 2838 4244 3 
1705 4244 4540 3 
1706 4996 2838 3 
1707 4996 4995 1 
1708 1534 4292 3 
1709 1534 1533 1 
1710 1534 4166 3 
1711 4166 4292 3 
1712 4166 4165 1 
1713 4292 1094 3 
1714 4292 4291 1 
1715 1094 4166 3 
1716 1094 1093 1 
1717 1094 1534 3 
1718 3840 4996 3 
1719 3840 3839 1 
1720 3840 4244 3 
1721 469 3715 2 
1722 895 5913 2 
1723 6315 6316 1 
1724 1074 3814 3 
1725 1074 1073 1 
1726 1074 2034 3 
1727 2034 3814 3 
1728 2034 2033 1 
1729 2034 5914 3 
1730 5914 1074 3 
1731 5914 5913 1 
1732 1710 1709 1 
1733 3814 5914 3 
1734 3814 3813 1 
1735 1598 3220 3 
1736 1598 1597 1 
1737 1598 4300 3 
1738 4300 3220 3 
1739 4300 4299 1 
1740 3220 4102 3 
1741 3220 3219 1 
1742 1563 3669 2 
1743 1563 1564 1 
1744 4102 1598 3 
1745 4102 4101 1 
1746 4102 4300 3 
1747 4539 4540 1 
1748 3945 4539 2 