ITEM: TIMESTEP
405960
ITEM: NUMBER OF ENTRIES
8364
ITEM: BOX BOUNDS pp pp ff
0.0000000000000000e+00 5.1031036000000000e+01
0.0000000000000000e+00 5.1031036000000000e+01
-5.0000000000000000e-01 1.2500000000000000e+01
ITEM: ENTRIES index c_1[1] c_1[2] c_1[3]
1 1286 6112 3 
2 1286 1285 1 
3 1286 3228 3 
4 6112 5532 3 
5 6112 6111 1 
6 5532 1286 3 
7 5532 5531 1 
8 4163 5345 2 
9 4803 5919 2 
10 5531 1285 2 
11 6325 6326 1 
12 3659 4605 2 
13 3536 90 3 
14 3536 3535 1 
15 805 4613 2 
16 90 1502 3 
17 90 89 1 
18 3258 1264 3 
19 3258 3257 1 
20 3258 6280 3 
21 6280 2612 3 
22 6280 6279 1 
23 2612 3258 3 
24 2612 2611 1 
25 1264 2612 3 
26 1264 1263 1 
27 1264 6280 3 
28 1001 4729 2 
29 1125 1126 1 
30 1125 3491 2 
31 2423 4577 2 
32 1341 3977 2 
33 757 758 1 
34 757 4773 2 
35 454 5012 3 
36 454 453 1 
37 5012 2336 3 
38 5012 5011 1 
39 207 5011 2 
40 4146 3046 3 
41 4146 4145 1 
42 3932 4146 3 
43 3932 3931 1 
44 3046 3932 3 
45 3046 3045 1 
46 6128 4614 3 
47 6128 6127 1 
48 4614 2954 3 
49 4614 4613 1 
50 2954 6128 3 
51 2954 2953 1 
52 586 6128 3 
53 586 4614 3 
54 586 2954 3 
55 801 802 1 
56 801 4145 2 
57 4397 5641 2 
58 5641 5642 1 
59 802 4398 3 
60 802 3740 3 
61 802 5642 3 
62 3740 5642 3 
63 3740 4398 3 
64 4398 4397 1 
65 5642 4398 3 
66 6307 6308 1 
67 4867 4868 1 
68 1465 6131 2 
69 3601 6087 2 
70 2190 2648 3 
71 2190 2189 1 
72 156 155 1 
73 156 2190 3 
74 156 610 3 
75 610 2648 3 
76 610 609 1 
77 610 2190 3 
78 2648 156 3 
79 2648 2647 1 
80 1298 5762 3 
81 1298 1297 1 
82 1298 4220 3 
83 5299 5300 1 
84 4943 4944 1 
85 3787 4943 2 
86 299 300 1 
87 299 2969 2 
88 4118 3672 3 
89 4118 6026 3 
90 4118 4266 3 
91 3672 3671 1 
92 3672 4266 3 
93 3672 6018 3 
94 6018 6026 3 
95 3944 5328 3 
96 5070 5069 1 
97 3326 1234 3 
98 3326 3325 1 
99 6308 5070 3 
100 1234 3030 3 
101 1234 1233 1 
102 1790 5328 3 
103 1790 3944 3 
104 3671 6025 2 
105 6025 6026 1 
106 5328 436 3 
107 6180 5058 3 
108 6180 6179 1 
109 6122 3952 3 
110 6122 6121 1 
111 2647 5441 2 
112 4219 4220 1 
113 3443 4219 2 
114 2128 2127 1 
115 4489 6203 2 
116 6203 6204 1 
117 1078 184 3 
118 1078 1077 1 
119 1078 2692 3 
120 3880 4124 3 
121 3880 3879 1 
122 3880 4552 3 
123 3880 5724 3 
124 4552 4124 3 
125 4552 4551 1 
126 4124 5724 3 
127 4124 4123 1 
128 183 779 2 
129 2195 2196 1 
130 965 2195 2 
131 2970 2346 3 
132 2970 2969 1 
133 2366 3044 3 
134 2366 2388 3 
135 2366 3810 3 
136 3810 4144 3 
137 2388 2387 1 
138 2388 3044 3 
139 2346 2646 3 
140 2346 2345 1 
141 3809 3810 1 
142 1469 3325 2 
143 3943 3944 1 
144 3943 5161 2 
145 5161 5162 1 
146 5789 6179 2 
147 251 1233 2 
148 113 3691 2 
149 2364 3822 3 
150 2364 2363 1 
151 3822 4464 3 
152 3822 3821 1 
153 4464 2364 3 
154 4464 4463 1 
155 2887 2888 1 
156 5460 5144 3 
157 5460 5459 1 
158 5059 5060 1 
159 45 6205 2 
160 184 6092 3 
161 184 183 1 
162 184 2692 3 
163 5724 4552 3 
164 5724 5723 1 
165 2692 6092 3 
166 2692 2691 1 
167 4794 3652 3 
168 4794 4793 1 
169 3652 2906 3 
170 3652 3651 1 
171 2906 4794 3 
172 2906 2905 1 
173 5153 3557 2 
174 2573 4793 2 
175 1455 1456 1 
176 2551 3397 2 
177 283 4549 2 
178 844 843 1 
179 2888 844 3 
180 114 2104 3 
181 114 113 1 
182 114 2508 3 
183 2104 1670 3 
184 2104 2103 1 
185 2104 2508 3 
186 2508 1670 3 
187 2508 2507 1 
188 4522 5842 3 
189 4522 4521 1 
190 4522 5048 3 
191 5048 22 3 
192 5048 5047 1 
193 1670 114 3 
194 1670 1669 1 
195 22 5842 3 
196 22 21 1 
197 22 4522 3 
198 5842 5048 3 
199 5842 5841 1 
200 31 5151 2 
201 1983 3917 2 
202 1228 2494 3 
203 1228 1227 1 
204 2164 646 3 
205 2164 2163 1 
206 194 2164 3 
207 194 193 1 
208 646 194 3 
209 646 645 1 
210 2552 2664 3 
211 2552 2551 1 
212 978 2552 3 
213 978 977 1 
214 2664 978 3 
215 2664 2663 1 
216 3562 820 3 
217 3562 3561 1 
218 820 3724 3 
219 820 819 1 
220 3724 3562 3 
221 3724 3723 1 
222 4909 4910 1 
223 4928 5014 3 
224 4928 4927 1 
225 5376 4928 3 
226 5376 5375 1 
227 4742 4928 3 
228 4742 4741 1 
229 4742 5376 3 
230 5014 4742 3 
231 5014 5013 1 
232 5014 5376 3 
233 2493 4927 2 
234 2017 2018 1 
235 2494 5538 3 
236 2494 2493 1 
237 32 5538 3 
238 32 31 1 
239 32 2494 3 
240 32 1228 3 
241 5538 1228 3 
242 5538 5537 1 
243 6281 6282 1 
244 148 147 1 
245 148 2826 3 
246 5713 5714 1 
247 4413 5713 2 
248 4001 4002 1 
249 68 2948 3 
250 68 67 1 
251 68 1586 3 
252 68 78 3 
253 1162 5908 3 
254 1162 1161 1 
255 5908 3888 3 
256 5908 5907 1 
257 1623 5397 2 
258 2727 5907 2 
259 2989 2990 1 
260 2989 3887 2 
261 6007 5585 2 
262 4150 1850 3 
263 4150 4149 1 
264 4150 5688 3 
265 1850 3934 3 
266 1850 1849 1 
267 1850 5688 3 
268 5688 3934 3 
269 5688 5687 1 
270 3934 4150 3 
271 3934 3933 1 
272 6242 1750 3 
273 6242 6241 1 
274 4414 2490 3 
275 4414 4413 1 
276 2490 4054 3 
277 2490 2489 1 
278 2490 3508 3 
279 4054 4414 3 
280 4054 4053 1 
281 1969 3567 2 
282 1161 5571 2 
283 2171 4371 2 
284 5398 3286 3 
285 5398 5397 1 
286 2728 5984 3 
287 2728 5398 3 
288 2728 2727 1 
289 1914 5952 3 
290 1914 1913 1 
291 4802 224 3 
292 4802 4801 1 
293 2193 2194 1 
294 438 4546 3 
295 4379 4380 1 
296 437 438 1 
297 3331 4379 2 
298 1360 5348 3 
299 1360 1359 1 
300 1360 4380 3 
301 5348 154 3 
302 5348 5347 1 
303 4380 5366 3 
304 4380 5348 3 
305 5484 4952 3 
306 5484 5483 1 
307 4952 3366 3 
308 4952 4951 1 
309 2123 4149 2 
310 456 4434 3 
311 456 455 1 
312 6246 456 3 
313 6246 6245 1 
314 4434 1242 3 
315 4434 4433 1 
316 4434 6246 3 
317 6161 6162 1 
318 2715 3633 2 
319 5498 286 3 
320 5498 5497 1 
321 286 3038 3 
322 286 285 1 
323 5088 3544 3 
324 5088 5087 1 
325 803 1721 2 
326 803 804 1 
327 1721 1722 1 
328 2439 5359 2 
329 5360 6186 3 
330 5360 5359 1 
331 6186 3852 3 
332 6186 6185 1 
333 1860 6186 3 
334 1860 1859 1 
335 1860 5360 3 
336 3852 1860 3 
337 3852 3851 1 
338 3852 5360 3 
339 5873 6071 2 
340 5874 1916 3 
341 5874 5873 1 
342 1913 5951 2 
343 5744 1916 3 
344 5744 5743 1 
345 5744 5874 3 
346 1916 4524 3 
347 1916 1915 1 
348 4524 5744 3 
349 4524 4523 1 
350 4524 5874 3 
351 326 4802 3 
352 326 325 1 
353 326 3974 3 
354 87 88 1 
355 87 5515 2 
356 4322 3890 3 
357 4322 4321 1 
358 3890 4 3 
359 3890 3889 1 
360 4 4322 3 
361 4 3 1 
362 2367 5431 2 
363 134 26 3 
364 134 133 1 
365 3578 678 3 
366 3578 3577 1 
367 26 1520 3 
368 26 25 1 
369 26 5816 3 
370 5816 134 3 
371 5816 5815 1 
372 1520 134 3 
373 1520 1519 1 
374 1520 5816 3 
375 1444 1443 1 
376 3954 1444 3 
377 3366 5484 3 
378 3366 3365 1 
379 6162 2160 3 
380 439 4669 2 
381 2859 3195 2 
382 4670 5942 3 
383 4670 4669 1 
384 5942 3374 3 
385 5942 5941 1 
386 2348 5942 3 
387 2348 2347 1 
388 2348 4670 3 
389 2348 3374 3 
390 3374 4670 3 
391 3374 3373 1 
392 285 4073 2 
393 4074 2318 3 
394 4074 4073 1 
395 1977 3169 2 
396 2318 1834 3 
397 2318 2317 1 
398 3600 236 3 
399 3600 3599 1 
400 3210 3600 3 
401 3210 3209 1 
402 236 3210 3 
403 236 235 1 
404 88 5516 3 
405 88 4990 3 
406 88 1198 3 
407 6141 6142 1 
408 2368 2367 1 
409 5923 5924 1 
410 3025 4129 2 
411 2347 2675 2 
412 1851 1852 1 
413 1173 1851 2 
414 3051 4681 2 
415 6273 6274 1 
416 4111 6273 2 
417 1100 1099 1 
418 6142 1100 3 
419 2433 4601 2 
420 1377 5617 2 
421 667 2377 2 
422 4651 4945 2 
423 4651 4652 1 
424 6200 2676 3 
425 6200 6199 1 
426 2676 4622 3 
427 2676 2675 1 
428 2676 4128 3 
429 4622 6200 3 
430 4622 4621 1 
431 4128 6200 3 
432 4128 4127 1 
433 4128 4622 3 
434 2862 4400 3 
435 2862 2861 1 
436 4400 1552 3 
437 4400 4399 1 
438 1552 2862 3 
439 1552 1551 1 
440 746 3746 3 
441 3746 3745 1 
442 5926 2602 3 
443 2602 2601 1 
444 4682 1174 3 
445 4682 4681 1 
446 745 746 1 
447 745 3745 2 
448 2219 2765 2 
449 651 2055 2 
450 638 604 3 
451 604 603 1 
452 3680 870 3 
453 3680 3679 1 
454 5618 3680 3 
455 5618 5617 1 
456 870 20 3 
457 870 869 1 
458 870 5618 3 
459 20 3680 3 
460 20 19 1 
461 20 5618 3 
462 5453 5454 1 
463 2607 2608 1 
464 226 1912 3 
465 226 225 1 
466 161 3225 2 
467 1840 6140 3 
468 1840 1839 1 
469 1840 2298 3 
470 6140 3250 3 
471 6140 6139 1 
472 2919 4913 2 
473 2919 2920 1 
474 5301 5302 1 
475 5302 5750 3 
476 5302 5866 3 
477 5750 5866 3 
478 5866 836 3 
479 836 835 1 
480 836 5302 3 
481 836 5750 3 
482 1900 3552 3 
483 1900 1899 1 
484 3552 2220 3 
485 3552 3551 1 
486 2220 1900 3 
487 2220 2219 1 
488 2441 539 2 
489 637 1815 2 
490 637 638 1 
491 1930 288 3 
492 1930 1929 1 
493 276 1518 3 
494 276 275 1 
495 1652 3368 3 
496 1652 2288 3 
497 1652 1651 1 
498 3368 2288 3 
499 3368 4240 3 
500 3368 3367 1 
501 4240 1652 3 
502 4240 4239 1 
503 2288 4240 3 
504 2288 2287 1 
505 259 1929 2 
506 1518 3582 3 
507 1518 1517 1 
508 3582 276 3 
509 3582 3581 1 
510 2978 4270 3 
511 4270 4269 1 
512 3056 3474 3 
513 3056 3055 1 
514 1758 3056 3 
515 1758 1757 1 
516 3474 1758 3 
517 3474 3473 1 
518 4052 226 3 
519 4052 4051 1 
520 4052 5340 3 
521 5340 226 3 
522 5340 5339 1 
523 3226 3225 1 
524 1395 4641 2 
525 1912 4052 3 
526 1912 1911 1 
527 1912 5340 3 
528 4281 4282 1 
529 2608 3226 3 
530 522 3138 3 
531 522 521 1 
532 3018 1396 3 
533 3018 3017 1 
534 1396 2684 3 
535 1396 1395 1 
536 2684 3018 3 
537 2684 2683 1 
538 1495 2753 2 
539 2754 4308 3 
540 2754 2753 1 
541 4308 2428 3 
542 4308 4307 1 
543 2428 2754 3 
544 2428 2427 1 
545 1002 5040 3 
546 1002 1001 1 
547 856 2754 3 
548 856 855 1 
549 856 2428 3 
550 856 4308 3 
551 5040 3002 3 
552 5040 5039 1 
553 4486 4485 1 
554 4486 2522 3 
555 5368 5367 1 
556 5368 5250 3 
557 2522 2521 1 
558 2522 5250 3 
559 2522 4610 3 
560 1899 4925 2 
561 4578 1474 3 
562 4578 4577 1 
563 2971 3419 2 
564 1474 874 3 
565 1474 1473 1 
566 3420 4926 3 
567 3420 3419 1 
568 874 4578 3 
569 874 873 1 
570 758 4578 3 
571 758 874 3 
572 758 1474 3 
573 4774 4842 3 
574 4774 4773 1 
575 1565 3441 2 
576 1566 3522 3 
577 1566 1565 1 
578 1566 3442 3 
579 3442 3522 3 
580 3442 3441 1 
581 260 1566 3 
582 260 259 1 
583 260 3442 3 
584 3522 260 3 
585 3522 3521 1 
586 3228 6112 3 
587 3228 3227 1 
588 3228 5532 3 
589 3109 4695 2 
590 4695 4696 1 
591 227 5387 2 
592 141 897 2 
593 5919 5920 1 
594 2725 2726 1 
595 1723 5755 2 
596 3819 5513 2 
597 219 220 1 
598 219 4269 2 
599 897 898 1 
600 5920 166 3 
601 4904 5630 3 
602 4904 4903 1 
603 2250 2146 3 
604 2250 2249 1 
605 2146 3314 3 
606 2146 2145 1 
607 302 4976 3 
608 302 301 1 
609 3314 2250 3 
610 3314 3313 1 
611 4976 3266 3 
612 4976 4975 1 
613 4478 2538 3 
614 4478 4477 1 
615 3466 4478 3 
616 3466 3465 1 
617 3466 4022 3 
618 4022 2538 3 
619 4022 4021 1 
620 4022 4478 3 
621 2538 3466 3 
622 2538 2537 1 
623 3266 302 3 
624 3266 3265 1 
625 4419 4420 1 
626 2039 2040 1 
627 2039 4419 2 
628 3110 5388 3 
629 3110 3109 1 
630 4804 3110 3 
631 4804 4803 1 
632 301 4199 2 
633 5630 5756 3 
634 5630 5629 1 
635 3473 5525 2 
636 5525 5526 1 
637 4200 1440 3 
638 4200 4199 1 
639 179 5547 2 
640 1445 3341 2 
641 208 3042 3 
642 208 207 1 
643 3042 5852 3 
644 3042 3041 1 
645 826 4200 3 
646 826 825 1 
647 3184 1446 3 
648 3184 3183 1 
649 4630 3184 3 
650 4630 4629 1 
651 1440 826 3 
652 1440 1439 1 
653 5852 208 3 
654 5852 5851 1 
655 547 759 2 
656 760 6202 3 
657 1592 5036 3 
658 6202 6201 1 
659 3614 3284 3 
660 3614 4320 3 
661 3546 3545 1 
662 3546 3614 3 
663 3546 4320 3 
664 4320 4319 1 
665 1446 4630 3 
666 1446 1445 1 
667 759 760 1 
668 3727 6191 2 
669 1502 3536 3 
670 1502 1501 1 
671 89 3117 2 
672 414 2806 3 
673 414 413 1 
674 2148 1442 3 
675 2148 2147 1 
676 2148 4480 3 
677 806 2148 3 
678 806 805 1 
679 1442 806 3 
680 1442 1441 1 
681 1442 4480 3 
682 2806 4668 3 
683 2806 2805 1 
684 4668 414 3 
685 4668 4667 1 
686 1836 2864 3 
687 1836 1835 1 
688 5860 1836 3 
689 5860 5859 1 
690 3957 5091 2 
691 3437 5719 2 
692 5332 3800 3 
693 5332 5331 1 
694 882 5332 3 
695 882 881 1 
696 1862 1861 1 
697 1862 5720 3 
698 1862 2230 3 
699 1862 5146 3 
700 2230 5720 3 
701 2230 2229 1 
702 5146 2230 3 
703 5146 5145 1 
704 5720 5146 3 
705 5720 5719 1 
706 881 5689 2 
707 3125 5413 2 
708 2470 4354 3 
709 2470 2469 1 
710 3828 2470 3 
711 3828 3827 1 
712 3828 4686 3 
713 3828 4354 3 
714 5689 5690 1 
715 855 2549 2 
716 1894 2208 3 
717 1894 1893 1 
718 751 4311 2 
719 4354 4686 3 
720 4354 4353 1 
721 4686 2470 3 
722 4686 4685 1 
723 827 2395 2 
724 957 2523 2 
725 4868 5900 3 
726 4868 5414 3 
727 4868 5122 3 
728 4346 6110 3 
729 4346 4345 1 
730 6110 752 3 
731 6110 6109 1 
732 752 4346 3 
733 752 751 1 
734 2523 2524 1 
735 4416 4730 3 
736 4416 4415 1 
737 4730 3108 3 
738 4730 4729 1 
739 3108 4416 3 
740 3108 3107 1 
741 6132 3216 3 
742 6132 6131 1 
743 3360 5414 3 
744 3360 3359 1 
745 1126 2964 3 
746 1126 2540 3 
747 1126 3028 3 
748 1846 6132 3 
749 1846 1845 1 
750 2750 1846 3 
751 2750 2749 1 
752 2750 3216 3 
753 2750 6132 3 
754 3216 1846 3 
755 3216 3215 1 
756 5542 712 3 
757 5542 5541 1 
758 5414 5900 3 
759 5414 5413 1 
760 5122 5542 3 
761 5122 5121 1 
762 712 5122 3 
763 712 711 1 
764 712 5690 3 
765 5900 3360 3 
766 5900 5899 1 
767 2310 1918 3 
768 2310 2309 1 
769 2540 2964 3 
770 2540 5690 3 
771 3028 3027 1 
772 3028 5690 3 
773 2851 3687 2 
774 405 4415 2 
775 1917 3433 2 
776 2309 5049 2 
777 4018 5656 3 
778 4018 4017 1 
779 3688 406 3 
780 3688 3687 1 
781 3688 4186 3 
782 5656 6088 3 
783 5656 5655 1 
784 3434 2882 3 
785 3434 3433 1 
786 2882 2912 3 
787 2882 2881 1 
788 2912 3434 3 
789 2912 2911 1 
790 527 609 2 
791 527 528 1 
792 5095 5096 1 
793 962 1400 3 
794 962 961 1 
795 962 2248 3 
796 3458 962 3 
797 3458 3457 1 
798 2248 1400 3 
799 2248 2247 1 
800 2248 3458 3 
801 3793 5095 2 
802 2424 3978 3 
803 2424 2423 1 
804 1400 3458 3 
805 1400 1399 1 
806 2578 2424 3 
807 2578 2577 1 
808 3978 2578 3 
809 3978 3977 1 
810 1342 3978 3 
811 1342 1341 1 
812 1342 2424 3 
813 1342 2578 3 
814 6088 4018 3 
815 6088 6087 1 
816 2247 6133 2 
817 2189 5911 2 
818 598 6048 3 
819 598 597 1 
820 598 1732 3 
821 1546 598 3 
822 1546 1545 1 
823 1546 1732 3 
824 1732 6048 3 
825 1732 1731 1 
826 6048 1546 3 
827 6048 6047 1 
828 5862 2234 3 
829 5862 5861 1 
830 4494 5862 3 
831 4494 4493 1 
832 2234 4494 3 
833 2234 2233 1 
834 2234 3036 3 
835 3036 4494 3 
836 3036 3035 1 
837 3036 5862 3 
838 631 3835 2 
839 3457 4025 2 
840 4519 4520 1 
841 3737 4519 2 
842 1156 784 3 
843 1156 1155 1 
844 1156 2746 3 
845 1156 5486 3 
846 5486 2746 3 
847 5486 5485 1 
848 784 5486 3 
849 784 783 1 
850 2617 4841 2 
851 1953 1954 1 
852 155 3661 2 
853 409 410 1 
854 409 5993 2 
855 2499 2500 1 
856 2499 5861 2 
857 3661 3662 1 
858 873 1029 2 
859 5912 1140 3 
860 5912 5911 1 
861 2618 5912 3 
862 2618 2617 1 
863 1140 2618 3 
864 1140 1139 1 
865 3361 6137 2 
866 1705 3985 2 
867 1705 1706 1 
868 3985 3986 1 
869 1773 5127 2 
870 4309 4310 1 
871 3211 4309 2 
872 3990 6070 3 
873 3990 5794 3 
874 3990 3989 1 
875 166 165 1 
876 4164 3990 3 
877 4164 4163 1 
878 4164 6070 3 
879 6070 5794 3 
880 6070 6069 1 
881 5794 4164 3 
882 5794 5793 1 
883 3968 3534 3 
884 3968 3967 1 
885 4720 3968 3 
886 4720 4719 1 
887 4720 5488 3 
888 4310 4120 3 
889 3585 5605 2 
890 4537 4777 2 
891 4892 2994 3 
892 4892 4891 1 
893 4892 5318 3 
894 2994 1076 3 
895 2994 2993 1 
896 488 5264 3 
897 488 487 1 
898 5264 5514 3 
899 5264 5263 1 
900 453 3127 2 
901 5514 488 3 
902 5514 5513 1 
903 2335 5379 2 
904 4254 3136 3 
905 4254 4253 1 
906 4254 6116 3 
907 4820 4626 3 
908 4820 4819 1 
909 4696 900 3 
910 4626 460 3 
911 4626 4625 1 
912 6115 6116 1 
913 460 4820 3 
914 460 459 1 
915 2336 454 3 
916 2336 2335 1 
917 2274 3110 3 
918 2274 2273 1 
919 2274 4804 3 
920 2274 5388 3 
921 5388 4804 3 
922 5388 5387 1 
923 2225 5075 2 
924 2279 4021 2 
925 515 2993 2 
926 3497 4975 2 
927 857 5561 2 
928 1111 1112 1 
929 1111 2471 2 
930 1112 5076 3 
931 1112 2070 3 
932 5076 892 3 
933 5076 5075 1 
934 892 2070 3 
935 892 891 1 
936 892 1112 3 
937 2070 5076 3 
938 2070 2069 1 
939 548 180 3 
940 548 547 1 
941 548 3000 3 
942 548 6052 3 
943 180 6052 3 
944 180 179 1 
945 516 3342 3 
946 516 515 1 
947 516 5314 3 
948 6052 3000 3 
949 6052 6051 1 
950 3000 180 3 
951 3000 2999 1 
952 5314 3342 3 
953 5314 5313 1 
954 3342 1148 3 
955 3342 3341 1 
956 1148 516 3 
957 1148 1147 1 
958 1148 5314 3 
959 397 5035 2 
960 2858 232 3 
961 2858 2857 1 
962 3003 3045 2 
963 5036 5035 1 
964 5036 3546 3 
965 4667 5463 2 
966 4606 1068 3 
967 4606 4605 1 
968 4606 5742 3 
969 3660 4606 3 
970 3660 3659 1 
971 3660 5742 3 
972 5742 1068 3 
973 5742 5741 1 
974 3284 3283 1 
975 3284 4320 3 
976 3284 5036 3 
977 1068 3660 3 
978 1068 1067 1 
979 5243 6127 2 
980 158 3728 3 
981 158 157 1 
982 158 362 3 
983 158 4526 3 
984 4526 362 3 
985 4526 4525 1 
986 3728 4526 3 
987 3728 3727 1 
988 1803 1804 1 
989 1803 2157 2 
990 2893 6215 2 
991 4287 5579 2 
992 157 1535 2 
993 1098 5464 3 
994 1098 1097 1 
995 1098 5670 3 
996 5464 4392 3 
997 5464 5463 1 
998 912 2858 3 
999 912 911 1 
1000 912 5712 3 
1001 707 3931 2 
1002 1263 1835 2 
1003 3926 1434 3 
1004 3926 3925 1 
1005 1685 3929 2 
1006 3118 3926 3 
1007 3118 3117 1 
1008 1434 3118 3 
1009 1434 1433 1 
1010 1309 1310 1 
1011 1309 1789 2 
1012 3613 3614 1 
1013 3613 4319 2 
1014 5669 5670 1 
1015 4288 3704 3 
1016 4288 4287 1 
1017 1789 1790 1 
1018 250 872 3 
1019 250 249 1 
1020 2864 5306 3 
1021 2864 5860 3 
1022 2864 2863 1 
1023 5306 5860 3 
1024 5306 1836 3 
1025 5306 5305 1 
1026 3930 814 3 
1027 3930 3929 1 
1028 814 5092 3 
1029 814 813 1 
1030 5092 3930 3 
1031 5092 5091 1 
1032 708 250 3 
1033 708 707 1 
1034 872 708 3 
1035 872 871 1 
1036 871 4531 2 
1037 2701 2702 1 
1038 2701 3087 2 
1039 615 3739 2 
1040 3739 3740 1 
1041 2208 3244 3 
1042 2208 2207 1 
1043 3244 1894 3 
1044 3244 3243 1 
1045 2964 3028 3 
1046 279 1967 2 
1047 4726 2398 3 
1048 4726 4725 1 
1049 2524 4726 3 
1050 2524 2556 3 
1051 2398 2556 3 
1052 2398 2397 1 
1053 2398 2524 3 
1054 2556 4726 3 
1055 2556 2555 1 
1056 2852 5030 3 
1057 2852 2851 1 
1058 2963 2964 1 
1059 2963 3027 2 
1060 6314 2852 3 
1061 6314 6313 1 
1062 3492 2852 3 
1063 3492 3491 1 
1064 3492 6314 3 
1065 5030 3492 3 
1066 5030 5029 1 
1067 5030 6314 3 
1068 4447 4448 1 
1069 4447 4725 2 
1070 2074 476 3 
1071 2074 2073 1 
1072 3602 2074 3 
1073 3602 3601 1 
1074 476 3602 3 
1075 476 475 1 
1076 2772 1466 3 
1077 2772 2771 1 
1078 1466 534 3 
1079 1466 1465 1 
1080 1466 1476 3 
1081 534 2772 3 
1082 534 533 1 
1083 534 1476 3 
1084 295 1049 2 
1085 4378 932 3 
1086 4378 4377 1 
1087 2539 2540 1 
1088 3024 406 3 
1089 3024 3023 1 
1090 3024 3688 3 
1091 406 4186 3 
1092 406 405 1 
1093 4186 3024 3 
1094 4186 4185 1 
1095 932 5050 3 
1096 932 931 1 
1097 5050 4378 3 
1098 5050 5049 1 
1099 4016 4724 3 
1100 4016 4015 1 
1101 4956 4016 3 
1102 4956 4955 1 
1103 4724 4956 3 
1104 4724 4723 1 
1105 5096 3794 3 
1106 3794 3793 1 
1107 688 1688 3 
1108 688 687 1 
1109 688 1726 3 
1110 451 1297 2 
1111 1726 4056 3 
1112 1726 1725 1 
1113 4056 688 3 
1114 4056 4055 1 
1115 1688 4056 3 
1116 1688 1687 1 
1117 1688 1726 3 
1118 3335 4723 2 
1119 1725 1731 2 
1120 553 554 1 
1121 553 1751 2 
1122 4220 5762 3 
1123 653 961 2 
1124 452 1298 3 
1125 452 451 1 
1126 452 4220 3 
1127 5762 452 3 
1128 5762 5761 1 
1129 4635 4636 1 
1130 4455 4635 2 
1131 3336 4894 3 
1132 3336 3335 1 
1133 1030 930 3 
1134 1030 1029 1 
1135 1030 4894 3 
1136 1030 3336 3 
1137 4894 4893 1 
1138 930 3336 3 
1139 930 929 1 
1140 930 4894 3 
1141 1432 1431 1 
1142 1599 1600 1 
1143 1599 4493 2 
1144 121 122 1 
1145 121 2475 2 
1146 16 4456 3 
1147 16 15 1 
1148 1774 2142 3 
1149 1774 1773 1 
1150 2142 388 3 
1151 2142 2141 1 
1152 617 618 1 
1153 617 1077 2 
1154 59 60 1 
1155 59 165 2 
1156 387 5263 2 
1157 4120 4119 1 
1158 3986 4310 3 
1159 3986 4120 3 
1160 618 3986 3 
1161 618 4310 3 
1162 618 4120 3 
1163 4751 6005 2 
1164 5976 348 3 
1165 5976 5975 1 
1166 3920 5976 3 
1167 3920 3919 1 
1168 487 2419 2 
1169 348 3920 3 
1170 348 347 1 
1171 60 572 3 
1172 384 383 1 
1173 1248 384 3 
1174 2280 5716 3 
1175 2280 2279 1 
1176 2280 3764 3 
1177 1627 3135 2 
1178 4778 2280 3 
1179 4778 4777 1 
1180 3764 4778 3 
1181 3764 3763 1 
1182 3764 5716 3 
1183 5716 4778 3 
1184 5716 5715 1 
1185 2226 580 3 
1186 2226 2225 1 
1187 4558 2226 3 
1188 4558 4557 1 
1189 747 3763 2 
1190 747 748 1 
1191 138 2226 3 
1192 138 137 1 
1193 138 4558 3 
1194 2158 3904 3 
1195 2158 2157 1 
1196 2158 3484 3 
1197 3984 2158 3 
1198 3984 3983 1 
1199 3484 3904 3 
1200 3484 3483 1 
1201 3484 3984 3 
1202 3904 3984 3 
1203 3904 3903 1 
1204 5428 2740 3 
1205 5428 5427 1 
1206 5410 5409 1 
1207 570 5410 3 
1208 2299 5715 2 
1209 5300 5464 3 
1210 1067 4117 2 
1211 4392 1098 3 
1212 4392 4391 1 
1213 4392 5670 3 
1214 2857 5769 2 
1215 2984 2983 1 
1216 2984 5670 3 
1217 2942 4944 3 
1218 2942 3788 3 
1219 2942 2984 3 
1220 2019 2020 1 
1221 2019 2365 2 
1222 4330 5704 3 
1223 4330 4329 1 
1224 1536 5704 3 
1225 1536 1535 1 
1226 1536 4330 3 
1227 1536 5580 3 
1228 5580 4330 3 
1229 5580 5579 1 
1230 1490 1489 1 
1231 5704 5580 3 
1232 5704 5703 1 
1233 5769 5770 1 
1234 1537 2345 2 
1235 4117 4118 1 
1236 4944 3788 3 
1237 4944 5300 3 
1238 3788 3787 1 
1239 4460 1538 3 
1240 4460 4459 1 
1241 1103 403 2 
1242 2941 2942 1 
1243 2941 5409 2 
1244 4266 6026 3 
1245 1104 404 3 
1246 1104 1103 1 
1247 1104 3380 3 
1248 2365 2366 1 
1249 500 1490 3 
1250 500 5300 3 
1251 404 1686 3 
1252 404 403 1 
1253 404 3380 3 
1254 585 586 1 
1255 585 5327 2 
1256 1686 1104 3 
1257 1686 1685 1 
1258 1686 3380 3 
1259 5327 5328 1 
1260 5438 4204 3 
1261 5438 5437 1 
1262 3293 3294 1 
1263 5057 1937 2 
1264 435 1433 2 
1265 601 602 1 
1266 1107 1108 1 
1267 3425 3426 1 
1268 6017 6018 1 
1269 4265 4266 1 
1270 4265 6017 2 
1271 5058 1938 3 
1272 5058 5057 1 
1273 1938 6180 3 
1274 1938 1937 1 
1275 3030 3326 3 
1276 3030 3029 1 
1277 4554 1698 3 
1278 4554 4553 1 
1279 5284 4554 3 
1280 5284 5283 1 
1281 436 435 1 
1282 436 3944 3 
1283 436 1790 3 
1284 1698 5284 3 
1285 1698 1697 1 
1286 2952 1560 3 
1287 2952 2951 1 
1288 2952 4532 3 
1289 1559 2953 2 
1290 6269 6270 1 
1291 4532 2246 3 
1292 4532 4531 1 
1293 1560 4532 3 
1294 1560 1559 1 
1295 2246 1560 3 
1296 2246 2245 1 
1297 2246 2952 3 
1298 273 2501 2 
1299 2811 3425 2 
1300 4515 4771 2 
1301 813 3115 2 
1302 616 615 1 
1303 2628 616 3 
1304 4997 4998 1 
1305 4997 6269 2 
1306 4114 4998 3 
1307 274 273 1 
1308 1870 274 3 
1309 1870 4998 3 
1310 5846 5845 1 
1311 2264 5846 3 
1312 2264 4114 3 
1313 4998 5846 3 
1314 2085 3243 2 
1315 252 251 1 
1316 2812 2811 1 
1317 5475 5476 1 
1318 3116 3115 1 
1319 3832 1062 3 
1320 3832 3831 1 
1321 1062 4160 3 
1322 1062 1061 1 
1323 4160 3832 3 
1324 4160 4159 1 
1325 5476 252 3 
1326 5459 6121 2 
1327 4262 3116 3 
1328 1476 2772 3 
1329 1476 1475 1 
1330 4033 4034 1 
1331 280 2810 3 
1332 280 279 1 
1333 280 2092 3 
1334 280 1426 3 
1335 1355 5475 2 
1336 6098 6097 1 
1337 6098 4690 3 
1338 5808 5807 1 
1339 5808 1356 3 
1340 1356 1355 1 
1341 1356 6098 3 
1342 4448 6098 3 
1343 4448 4690 3 
1344 4448 6028 3 
1345 1475 1509 2 
1346 4690 4689 1 
1347 4690 5808 3 
1348 47 475 2 
1349 2810 2092 3 
1350 2810 2809 1 
1351 2092 1426 3 
1352 2092 2091 1 
1353 1426 2810 3 
1354 1426 1425 1 
1355 6028 5808 3 
1356 1061 3945 2 
1357 4852 2180 3 
1358 4852 4851 1 
1359 48 18 3 
1360 48 47 1 
1361 48 1398 3 
1362 48 4076 3 
1363 4689 5613 2 
1364 1398 4076 3 
1365 1398 1397 1 
1366 4076 18 3 
1367 4076 4075 1 
1368 18 1398 3 
1369 18 17 1 
1370 687 5393 2 
1371 931 3247 2 
1372 5393 5394 1 
1373 3479 4377 2 
1374 3841 3842 1 
1375 4991 6097 2 
1376 6027 6028 1 
1377 3467 3468 1 
1378 3467 3841 2 
1379 532 531 1 
1380 1367 4049 2 
1381 1687 5369 2 
1382 2785 4055 2 
1383 3640 1962 3 
1384 3640 3639 1 
1385 4050 3640 3 
1386 4050 4049 1 
1387 3468 532 3 
1388 4893 5761 2 
1389 3604 2128 3 
1390 3603 3604 1 
1391 654 1962 3 
1392 654 653 1 
1393 654 3640 3 
1394 654 4050 3 
1395 1962 4050 3 
1396 1962 1961 1 
1397 3444 4490 3 
1398 3444 3443 1 
1399 4490 468 3 
1400 4490 4489 1 
1401 3084 1432 3 
1402 5370 5442 3 
1403 5370 5369 1 
1404 1042 3444 3 
1405 1042 1041 1 
1406 1042 4490 3 
1407 468 3444 3 
1408 468 467 1 
1409 468 1042 3 
1410 5396 5395 1 
1411 6204 5396 3 
1412 574 5370 3 
1413 574 573 1 
1414 5442 574 3 
1415 5442 5441 1 
1416 1961 4405 2 
1417 664 663 1 
1418 4456 846 3 
1419 4456 4455 1 
1420 3083 3084 1 
1421 846 16 3 
1422 846 845 1 
1423 4934 574 3 
1424 4934 4933 1 
1425 4934 5442 3 
1426 4934 5370 3 
1427 1041 3083 2 
1428 627 4933 2 
1429 50 1664 3 
1430 50 49 1 
1431 50 4202 3 
1432 4202 4752 3 
1433 4202 4201 1 
1434 4752 50 3 
1435 4752 4751 1 
1436 1664 4752 3 
1437 1664 1663 1 
1438 1664 4202 3 
1439 5633 5634 1 
1440 1006 4368 3 
1441 1006 1005 1 
1442 4368 5242 3 
1443 4368 4367 1 
1444 4929 5633 2 
1445 4123 5975 2 
1446 49 2313 2 
1447 168 2232 3 
1448 168 167 1 
1449 168 780 3 
1450 168 5164 3 
1451 2232 780 3 
1452 2232 2231 1 
1453 780 5164 3 
1454 780 779 1 
1455 5164 2232 3 
1456 5164 5163 1 
1457 459 4011 2 
1458 4277 4625 2 
1459 572 571 1 
1460 5163 6147 2 
1461 5241 6091 2 
1462 1121 1739 2 
1463 189 4131 2 
1464 465 4847 2 
1465 4131 4132 1 
1466 1253 3779 2 
1467 458 457 1 
1468 458 1740 3 
1469 1357 1358 1 
1470 1357 5221 2 
1471 1740 1739 1 
1472 3760 3759 1 
1473 3760 5222 3 
1474 1254 1253 1 
1475 1254 5222 3 
1476 5222 5221 1 
1477 1022 1021 1 
1478 1022 3760 3 
1479 1022 1254 3 
1480 1358 1022 3 
1481 1358 3760 3 
1482 1358 5222 3 
1483 748 1254 3 
1484 748 1740 3 
1485 5534 5894 3 
1486 382 458 3 
1487 382 748 3 
1488 382 1740 3 
1489 3983 5893 2 
1490 2740 4246 3 
1491 2740 2739 1 
1492 569 570 1 
1493 569 1655 2 
1494 1655 1656 1 
1495 4246 5428 3 
1496 4246 4245 1 
1497 3043 3044 1 
1498 3043 3401 2 
1499 3379 3380 1 
1500 3044 4144 3 
1501 1538 1316 3 
1502 1538 1537 1 
1503 1538 1576 3 
1504 1316 4460 3 
1505 1316 1315 1 
1506 1316 1576 3 
1507 1576 4460 3 
1508 1576 1575 1 
1509 5770 5718 3 
1510 5718 5717 1 
1511 1796 5596 3 
1512 1796 1795 1 
1513 1796 1856 3 
1514 5596 722 3 
1515 5596 5595 1 
1516 722 1796 3 
1517 722 721 1 
1518 722 1856 3 
1519 1856 5596 3 
1520 1856 1855 1 
1521 4143 4144 1 
1522 4144 2388 3 
1523 3294 3426 3 
1524 300 2346 3 
1525 300 2970 3 
1526 300 1028 3 
1527 721 1027 2 
1528 3426 6018 3 
1529 1027 1028 1 
1530 3059 4969 2 
1531 3315 5069 2 
1532 1593 1594 1 
1533 2646 2970 3 
1534 2646 2645 1 
1535 2646 3294 3 
1536 1028 3294 3 
1537 1028 3426 3 
1538 2951 3809 2 
1539 3821 4463 2 
1540 1571 2645 2 
1541 1571 1572 1 
1542 2245 4203 2 
1543 2885 6223 2 
1544 2992 5790 3 
1545 2992 2991 1 
1546 2992 6122 3 
1547 3952 2992 3 
1548 3952 3951 1 
1549 5790 3952 3 
1550 5790 5789 1 
1551 5790 6122 3 
1552 2991 3029 2 
1553 2627 2628 1 
1554 2627 6037 2 
1555 4516 2182 3 
1556 4516 4515 1 
1557 3752 4148 3 
1558 3752 3751 1 
1559 3752 4516 3 
1560 2182 4148 3 
1561 2182 2181 1 
1562 2182 3752 3 
1563 3692 2932 3 
1564 3692 3691 1 
1565 3692 6224 3 
1566 2932 2922 3 
1567 2932 2931 1 
1568 2932 6224 3 
1569 2922 3692 3 
1570 2922 2921 1 
1571 6224 2922 3 
1572 6224 6223 1 
1573 4148 4516 3 
1574 4148 4147 1 
1575 1869 1870 1 
1576 1869 3751 2 
1577 843 4417 2 
1578 2325 2887 2 
1579 4996 2838 3 
1580 4996 4995 1 
1581 5060 5144 3 
1582 5060 5460 3 
1583 4539 4540 1 
1584 2091 1425 2 
1585 5598 1332 3 
1586 1332 1331 1 
1587 5144 3064 3 
1588 5144 5143 1 
1589 4418 4852 3 
1590 4418 4417 1 
1591 2180 4418 3 
1592 2180 2179 1 
1593 4540 896 3 
1594 4244 4540 3 
1595 3840 4996 3 
1596 3840 3839 1 
1597 3840 4244 3 
1598 3248 3247 1 
1599 3248 5394 3 
1600 3248 5060 3 
1601 5394 5928 3 
1602 943 3063 2 
1603 3064 5460 3 
1604 3064 3063 1 
1605 3064 5394 3 
1606 5928 3248 3 
1607 3480 3479 1 
1608 3480 1044 3 
1609 2534 2533 1 
1610 2534 5646 3 
1611 1044 1043 1 
1612 1044 5646 3 
1613 1044 2534 3 
1614 1043 4839 2 
1615 5646 3480 3 
1616 3946 3945 1 
1617 3946 2534 3 
1618 1787 4935 2 
1619 770 4192 3 
1620 770 769 1 
1621 770 5254 3 
1622 2120 944 3 
1623 2120 2119 1 
1624 944 1366 3 
1625 944 943 1 
1626 1366 2120 3 
1627 1366 1365 1 
1628 5254 4192 3 
1629 5254 5253 1 
1630 5959 5960 1 
1631 4992 770 3 
1632 4992 4991 1 
1633 4992 5254 3 
1634 4192 4992 3 
1635 4192 4191 1 
1636 1217 5959 2 
1637 467 2449 2 
1638 46 1748 3 
1639 46 45 1 
1640 46 524 3 
1641 1748 2830 3 
1642 1748 1747 1 
1643 2830 46 3 
1644 2830 2829 1 
1645 524 1748 3 
1646 524 523 1 
1647 524 2830 3 
1648 4837 5731 2 
1649 2025 2026 1 
1650 2025 3511 2 
1651 1194 3918 3 
1652 1194 1193 1 
1653 1194 5042 3 
1654 6206 1194 3 
1655 6206 6205 1 
1656 5042 6206 3 
1657 5042 5041 1 
1658 3161 4551 2 
1659 3918 6206 3 
1660 3918 3917 1 
1661 3918 5042 3 
1662 1639 4367 2 
1663 1639 1640 1 
1664 4930 5094 3 
1665 4930 4929 1 
1666 2561 5723 2 
1667 5462 4930 3 
1668 5462 5461 1 
1669 4278 1458 3 
1670 4278 4277 1 
1671 6092 1078 3 
1672 6092 6091 1 
1673 628 4930 3 
1674 628 627 1 
1675 628 5094 3 
1676 628 5462 3 
1677 2562 4278 3 
1678 2562 2561 1 
1679 5094 5462 3 
1680 5094 5093 1 
1681 1122 4848 3 
1682 1122 1121 1 
1683 1122 1196 3 
1684 3780 4012 3 
1685 3780 3779 1 
1686 4848 464 3 
1687 4848 4847 1 
1688 3812 3780 3 
1689 3812 3811 1 
1690 4012 3812 3 
1691 4012 4011 1 
1692 190 2574 3 
1693 190 189 1 
1694 1021 3651 2 
1695 2574 3556 3 
1696 2574 2573 1 
1697 1618 190 3 
1698 1618 1617 1 
1699 1618 3556 3 
1700 1618 2574 3 
1701 3556 190 3 
1702 3556 3555 1 
1703 1617 4331 2 
1704 5533 5534 1 
1705 645 3765 2 
1706 6024 4332 3 
1707 6024 6023 1 
1708 2163 5955 2 
1709 5894 5893 1 
1710 3558 5210 3 
1711 3558 966 3 
1712 3558 3557 1 
1713 5154 3558 3 
1714 5154 5210 3 
1715 5154 5153 1 
1716 5210 966 3 
1717 5210 5209 1 
1718 966 965 1 
1719 4106 2568 3 
1720 4106 4105 1 
1721 5956 4106 3 
1722 5956 5955 1 
1723 2568 5956 3 
1724 2568 2567 1 
1725 2387 2563 2 
1726 790 1026 3 
1727 790 789 1 
1728 5062 790 3 
1729 5062 5061 1 
1730 5062 5472 3 
1731 5472 790 3 
1732 5472 5471 1 
1733 1877 2059 2 
1734 1026 5472 3 
1735 1026 1025 1 
1736 1026 5062 3 
1737 3060 908 3 
1738 3060 3059 1 
1739 1470 908 3 
1740 1470 1469 1 
1741 1470 3060 3 
1742 1470 2600 3 
1743 2600 3060 3 
1744 2600 2599 1 
1745 908 2600 3 
1746 908 907 1 
1747 2564 2563 1 
1748 5162 2564 3 
1749 907 5679 2 
1750 6004 3648 3 
1751 6004 6003 1 