ITEM: TIMESTEP
306000
ITEM: NUMBER OF ENTRIES
8362
ITEM: BOX BOUNDS pp pp ff
0.0000000000000000e+00 5.1031036000000000e+01
0.0000000000000000e+00 5.1031036000000000e+01
-5.0000000000000000e-01 1.2500000000000000e+01
ITEM: ENTRIES index c_1[1] c_1[2] c_1[3]
1 3395 3396 1 
2 453 3127 2 
3 302 4976 3 
4 302 301 1 
5 3266 302 3 
6 3266 3265 1 
7 4976 3266 3 
8 4976 4975 1 
9 3962 1128 3 
10 3962 3961 1 
11 118 3962 3 
12 118 117 1 
13 2974 118 3 
14 2974 2973 1 
15 2974 3962 3 
16 2069 5009 2 
17 1128 118 3 
18 1128 1127 1 
19 1128 2974 3 
20 516 3342 3 
21 516 515 1 
22 516 5314 3 
23 5314 3342 3 
24 5314 5313 1 
25 3342 1148 3 
26 3342 3341 1 
27 1148 516 3 
28 1148 1147 1 
29 1148 5314 3 
30 3283 4255 2 
31 2898 2890 3 
32 2898 2897 1 
33 1588 2898 3 
34 1588 1587 1 
35 2890 1588 3 
36 2890 2889 1 
37 751 4311 2 
38 2539 2540 1 
39 5414 5900 3 
40 5414 5413 1 
41 317 1845 2 
42 2254 2682 3 
43 2254 2253 1 
44 2682 1160 3 
45 2682 2681 1 
46 1160 2254 3 
47 1160 1159 1 
48 405 4415 2 
49 3861 3862 1 
50 3861 4567 2 
51 409 410 1 
52 409 5993 2 
53 1762 2520 3 
54 1762 1761 1 
55 1271 1729 2 
56 2602 2601 1 
57 5926 2602 3 
58 1773 5127 2 
59 3990 6070 3 
60 3990 5794 3 
61 3990 3989 1 
62 3227 3395 2 
63 4096 4095 1 
64 3110 5388 3 
65 3110 3109 1 
66 4804 3110 3 
67 4804 4803 1 
68 2088 1070 3 
69 2088 2087 1 
70 892 2070 3 
71 892 891 1 
72 892 1112 3 
73 2070 5076 3 
74 2070 2069 1 
75 5076 892 3 
76 5076 5075 1 
77 1112 5076 3 
78 1112 2070 3 
79 911 1409 2 
80 397 5035 2 
81 1591 5355 2 
82 1591 1592 1 
83 6110 752 3 
84 6110 6109 1 
85 752 4346 3 
86 752 751 1 
87 4346 6110 3 
88 4346 4345 1 
89 1499 2467 2 
90 2750 1846 3 
91 2750 2749 1 
92 2750 3216 3 
93 2750 6132 3 
94 3216 1846 3 
95 3216 3215 1 
96 1125 1126 1 
97 1125 3491 2 
98 6132 3216 3 
99 6132 6131 1 
100 1846 6132 3 
101 1846 1845 1 
102 2309 5049 2 
103 1917 3433 2 
104 115 1431 2 
105 2314 4924 3 
106 2314 2313 1 
107 5380 2314 3 
108 5380 5379 1 
109 4924 5380 3 
110 4924 4923 1 
111 3811 4819 2 
112 2129 3903 2 
113 2130 606 3 
114 2130 2129 1 
115 2130 3708 3 
116 3708 4388 3 
117 3708 3707 1 
118 606 4388 3 
119 606 605 1 
120 606 3708 3 
121 4388 2130 3 
122 4388 4387 1 
123 1247 1248 1 
124 1247 383 2 
125 3932 4146 3 
126 3932 3931 1 
127 708 250 3 
128 708 707 1 
129 4146 3046 3 
130 4146 4145 1 
131 6084 5356 3 
132 6084 6083 1 
133 1410 5496 3 
134 1410 1409 1 
135 5496 5244 3 
136 5496 5495 1 
137 2894 1410 3 
138 2894 2893 1 
139 2894 5244 3 
140 2894 5496 3 
141 801 802 1 
142 801 4145 2 
143 250 872 3 
144 250 249 1 
145 872 708 3 
146 872 871 1 
147 3293 3294 1 
148 5244 1410 3 
149 5244 5243 1 
150 3379 3380 1 
151 3659 4605 2 
152 3294 3426 3 
153 2970 2346 3 
154 2970 2969 1 
155 432 860 3 
156 432 431 1 
157 860 2468 3 
158 860 859 1 
159 2208 3244 3 
160 2208 2207 1 
161 2468 432 3 
162 2468 2467 1 
163 1894 2208 3 
164 1894 1893 1 
165 3244 1894 3 
166 3244 3243 1 
167 4113 4114 1 
168 27 28 1 
169 27 4113 2 
170 6314 2852 3 
171 6314 6313 1 
172 2852 5030 3 
173 2852 2851 1 
174 5030 3492 3 
175 5030 5029 1 
176 5030 6314 3 
177 3492 2852 3 
178 3492 3491 1 
179 3492 6314 3 
180 3952 2992 3 
181 3952 3951 1 
182 5790 3952 3 
183 5790 5789 1 
184 5790 6122 3 
185 28 3272 3 
186 932 5050 3 
187 932 931 1 
188 5050 4378 3 
189 5050 5049 1 
190 2296 1878 3 
191 2296 2295 1 
192 3046 3932 3 
193 3046 3045 1 
194 1795 2295 2 
195 299 300 1 
196 299 2969 2 
197 2811 3425 2 
198 3425 3426 1 
199 431 3513 2 
200 2991 3029 2 
201 2992 5790 3 
202 2992 2991 1 
203 2992 6122 3 
204 6122 3952 3 
205 6122 6121 1 
206 1847 4125 2 
207 2771 5029 2 
208 5459 6121 2 
209 931 3247 2 
210 2787 5143 2 
211 3523 5889 2 
212 4838 1258 3 
213 4838 4837 1 
214 4837 5731 2 
215 5110 2296 3 
216 5110 5109 1 
217 1878 5110 3 
218 1878 1877 1 
219 2885 6223 2 
220 2932 2922 3 
221 2932 2931 1 
222 2932 6224 3 
223 2812 2811 1 
224 1200 3016 3 
225 1200 1199 1 
226 2657 2931 2 
227 3016 878 3 
228 3016 3015 1 
229 878 1200 3 
230 878 877 1 
231 2103 5007 2 
232 340 339 1 
233 340 5986 3 
234 340 3452 3 
235 5986 5985 1 
236 5986 6226 3 
237 6226 6225 1 
238 4454 3274 3 
239 4454 4453 1 
240 6086 4454 3 
241 6086 6085 1 
242 2304 340 3 
243 2304 3452 3 
244 2304 4864 3 
245 3452 4864 3 
246 4864 4863 1 
247 4864 6226 3 
248 5373 5374 1 
249 5373 1801 2 
250 5374 5266 3 
251 1802 1801 1 
252 1802 5374 3 
253 5266 5265 1 
254 5266 1802 3 
255 6224 2922 3 
256 6224 6223 1 
257 2922 3692 3 
258 2922 2921 1 
259 3692 2932 3 
260 3692 3691 1 
261 3692 6224 3 
262 5008 1312 3 
263 5008 5007 1 
264 3290 5008 3 
265 3290 3289 1 
266 2413 6055 2 
267 2413 2414 1 
268 1666 1528 3 
269 1666 1665 1 
270 1528 472 3 
271 1528 1527 1 
272 341 5733 2 
273 1312 3290 3 
274 1312 1311 1 
275 255 256 1 
276 255 1841 2 
277 1665 3097 2 
278 4357 4358 1 
279 333 6119 2 
280 333 334 1 
281 2478 1488 3 
282 2478 2477 1 
283 6135 6249 2 
284 281 2477 2 
285 6250 1394 3 
286 6250 6249 1 
287 1394 30 3 
288 1394 1393 1 
289 3355 5573 2 
290 1867 6167 2 
291 1868 2214 3 
292 1868 1867 1 
293 1868 2634 3 
294 2466 4452 3 
295 2466 2465 1 
296 3356 2466 3 
297 3356 3355 1 
298 4452 3356 3 
299 4452 4451 1 
300 4544 6120 3 
301 4544 4543 1 
302 4962 4544 3 
303 4962 4961 1 
304 4962 6120 3 
305 6120 2332 3 
306 6120 6119 1 
307 2332 4544 3 
308 2332 2331 1 
309 2332 4962 3 
310 5594 6242 3 
311 5594 5593 1 
312 1750 5594 3 
313 1750 1749 1 
314 6242 1750 3 
315 6242 6241 1 
316 1393 3339 2 
317 5226 2290 3 
318 5226 5225 1 
319 2290 2736 3 
320 2290 2289 1 
321 3716 5052 3 
322 3716 3715 1 
323 2712 3716 3 
324 2712 2711 1 
325 2736 5226 3 
326 2736 2735 1 
327 2711 5609 2 
328 6167 6168 1 
329 1898 2306 3 
330 1898 1897 1 
331 1898 2172 3 
332 1898 4518 3 
333 4518 2172 3 
334 4518 4517 1 
335 2062 3168 3 
336 2062 2061 1 
337 2062 6228 3 
338 3168 6228 3 
339 3168 3167 1 
340 1746 3168 3 
341 1746 1745 1 
342 1746 2062 3 
343 3242 1142 3 
344 3242 3241 1 
345 6228 1746 3 
346 6228 6227 1 
347 5528 3242 3 
348 5528 5527 1 
349 2331 3123 2 
350 3846 2800 3 
351 3846 5554 3 
352 3846 3845 1 
353 2048 3846 3 
354 2048 2047 1 
355 2031 2032 1 
356 2031 5365 2 
357 4082 5026 3 
358 5026 5025 1 
359 3385 3386 1 
360 795 5025 2 
361 1999 2197 2 
362 2000 1082 3 
363 2000 1999 1 
364 2000 4818 3 
365 1082 4818 3 
366 1082 1081 1 
367 1880 1082 3 
368 1880 1879 1 
369 1880 2000 3 
370 4818 1880 3 
371 4818 4817 1 
372 323 1879 2 
373 1142 5528 3 
374 1142 1141 1 
375 6311 6312 1 
376 2064 4100 3 
377 4100 4099 1 
378 2924 2706 3 
379 2924 2923 1 
380 2047 2705 2 
381 969 5815 2 
382 508 3124 3 
383 508 507 1 
384 507 2349 2 
385 3350 508 3 
386 3350 3349 1 
387 5554 2048 3 
388 5554 5553 1 
389 2800 5554 3 
390 2800 2048 3 
391 2800 2799 1 
392 3124 3350 3 
393 3124 3123 1 
394 2808 5148 3 
395 2808 2807 1 
396 2565 2566 1 
397 2565 2799 2 
398 2845 4585 2 
399 4585 4586 1 
400 1611 5635 2 
401 3386 3308 3 
402 3308 3307 1 
403 477 509 2 
404 437 438 1 
405 509 510 1 
406 330 582 3 
407 330 329 1 
408 3450 330 3 
409 3450 3449 1 
410 582 3450 3 
411 582 581 1 
412 3307 5133 2 
413 4849 4850 1 
414 4579 4849 2 
415 4817 5107 2 
416 324 1404 3 
417 324 323 1 
418 324 5038 3 
419 324 5054 3 
420 5038 1404 3 
421 5038 5037 1 
422 1404 5054 3 
423 1404 1403 1 
424 5054 5038 3 
425 5054 5053 1 
426 729 5087 2 
427 5088 3544 3 
428 5088 5087 1 
429 2440 5088 3 
430 2440 2439 1 
431 1875 4241 2 
432 4242 4241 1 
433 5884 4242 3 
434 1721 1722 1 
435 3959 5883 2 
436 4044 1708 3 
437 4044 4043 1 
438 5272 4044 3 
439 5272 5271 1 
440 1708 5272 3 
441 1708 1707 1 
442 1854 3346 3 
443 1854 1853 1 
444 1221 1222 1 
445 1221 5271 2 
446 4989 5351 2 
447 198 5352 3 
448 198 197 1 
449 4216 198 3 
450 4216 4215 1 
451 5352 4216 3 
452 5352 5351 1 
453 2822 198 3 
454 2822 2821 1 
455 2822 5352 3 
456 2822 4216 3 
457 2818 2924 3 
458 2818 2817 1 
459 2706 2818 3 
460 2706 2705 1 
461 1250 2706 3 
462 1250 1249 1 
463 1250 2924 3 
464 1250 2818 3 
465 3550 1504 3 
466 3550 3549 1 
467 2350 3550 3 
468 2350 2349 1 
469 5674 5632 3 
470 1504 2350 3 
471 1504 1503 1 
472 705 706 1 
473 992 718 3 
474 992 991 1 
475 992 5148 3 
476 992 2808 3 
477 963 1287 2 
478 6291 6292 1 
479 679 4977 2 
480 440 4946 3 
481 440 439 1 
482 440 3540 3 
483 915 916 1 
484 915 5053 2 
485 730 1330 3 
486 730 729 1 
487 322 730 3 
488 322 321 1 
489 1330 322 3 
490 1330 1329 1 
491 5883 5884 1 
492 1722 4422 3 
493 4422 4421 1 
494 6 4422 3 
495 6 1722 3 
496 5705 5706 1 
497 5089 5705 2 
498 2656 92 3 
499 2656 2655 1 
500 4208 2656 3 
501 4208 4207 1 
502 1616 4208 3 
503 1616 2656 3 
504 92 4208 3 
505 92 91 1 
506 92 1616 3 
507 1185 5043 2 
508 5632 5631 1 
509 676 675 1 
510 2202 676 3 
511 1503 5141 2 
512 1187 1295 2 
513 2132 1208 3 
514 1208 1207 1 
515 2653 6031 2 
516 2867 4227 2 
517 6032 4228 3 
518 6032 6031 1 
519 1720 6032 3 
520 1720 1719 1 
521 1720 4228 3 
522 1720 4430 3 
523 2868 440 3 
524 2868 2867 1 
525 655 3913 2 
526 3913 3914 1 
527 3540 2868 3 
528 3540 3539 1 
529 3540 4946 3 
530 4946 2868 3 
531 4946 4945 1 
532 1477 4621 2 
533 4708 2840 3 
534 4708 4707 1 
535 4708 5622 3 
536 210 4708 3 
537 210 209 1 
538 210 5622 3 
539 5622 2840 3 
540 5622 5621 1 
541 2840 210 3 
542 2840 2839 1 
543 4707 4871 2 
544 1551 6239 2 
545 737 2453 2 
546 4872 3748 3 
547 4872 4871 1 
548 2789 3553 2 
549 3747 5601 2 
550 3592 462 3 
551 3592 3591 1 
552 2322 462 3 
553 2322 2321 1 
554 2322 3592 3 
555 738 3592 3 
556 738 737 1 
557 738 2322 3 
558 462 738 3 
559 462 461 1 
560 495 3591 2 
561 2801 4207 2 
562 1390 5044 3 
563 1390 1389 1 
564 4878 1952 3 
565 4067 4068 1 
566 1857 4753 2 
567 2496 4878 3 
568 5103 5477 2 
569 2896 5020 3 
570 2896 2895 1 
571 2896 5818 3 
572 2759 2760 1 
573 2759 4067 2 
574 535 1079 2 
575 2201 2202 1 
576 1188 218 3 
577 1188 1187 1 
578 218 1738 3 
579 218 217 1 
580 4974 5932 3 
581 4974 4973 1 
582 1738 1188 3 
583 1738 1737 1 
584 1484 234 3 
585 234 233 1 
586 4630 3184 3 
587 4630 4629 1 
588 1446 4630 3 
589 1446 1445 1 
590 3184 1446 3 
591 3184 3183 1 
592 6267 6268 1 
593 5074 2010 3 
594 5074 5073 1 
595 822 5074 3 
596 822 821 1 
597 149 5073 2 
598 2277 5621 2 
599 4914 672 3 
600 4914 4913 1 
601 72 2790 3 
602 72 71 1 
603 72 4914 3 
604 2790 672 3 
605 2790 2789 1 
606 2790 4914 3 
607 672 72 3 
608 672 671 1 
609 1176 4806 3 
610 1176 1175 1 
611 4806 5336 3 
612 4806 4805 1 
613 5336 1176 3 
614 5336 5335 1 
615 1313 1314 1 
616 496 2442 3 
617 496 495 1 
618 496 4068 3 
619 540 496 3 
620 540 539 1 
621 540 4068 3 
622 1952 1951 1 
623 1952 2496 3 
624 1952 4068 3 
625 2971 3419 2 
626 5864 6118 3 
627 5864 5863 1 
628 6118 536 3 
629 6118 6117 1 
630 536 5864 3 
631 536 535 1 
632 536 4008 3 
633 4008 6118 3 
634 4008 4007 1 
635 4008 5864 3 
636 293 294 1 
637 1566 3522 3 
638 1566 1565 1 
639 1566 3442 3 
640 3442 3522 3 
641 3442 3441 1 
642 3522 260 3 
643 3522 3521 1 
644 260 1566 3 
645 260 259 1 
646 260 3442 3 
647 4163 5345 2 
648 1438 1437 1 
649 233 1179 2 
650 2039 2040 1 
651 2039 4419 2 
652 4419 4420 1 
653 1445 3341 2 
654 5852 208 3 
655 5852 5851 1 
656 3042 5852 3 
657 3042 3041 1 
658 3041 4525 2 
659 821 1819 2 
660 2919 4913 2 
661 2919 2920 1 
662 150 2910 3 
663 150 149 1 
664 2910 2140 3 
665 2910 2909 1 
666 2140 150 3 
667 2140 2139 1 
668 3125 5413 2 
669 4867 4868 1 
670 5866 836 3 
671 1565 3441 2 
672 2499 2500 1 
673 2499 5861 2 
674 3862 4568 3 
675 1580 5436 3 
676 1580 3010 3 
677 1580 3862 3 
678 4568 5436 3 
679 3010 5436 3 
680 3010 4568 3 
681 5436 5435 1 
682 2972 934 3 
683 2972 2971 1 
684 934 3836 3 
685 934 933 1 
686 934 4822 3 
687 3836 2972 3 
688 3836 3835 1 
689 3836 4822 3 
690 5990 1272 3 
691 5990 5989 1 
692 5648 5990 3 
693 5648 5647 1 
694 4822 2972 3 
695 4822 4821 1 
696 1759 3521 2 
697 1759 1760 1 
698 1272 5648 3 
699 1272 1271 1 
700 3732 1272 3 
701 3732 3731 1 
702 3732 5990 3 
703 3732 5648 3 
704 4164 3990 3 
705 4164 6070 3 
706 4164 4163 1 
707 5794 4164 3 
708 5794 5793 1 
709 6070 5794 3 
710 6070 6069 1 
711 5180 1054 3 
712 3900 2088 3 
713 3900 3899 1 
714 49 2313 2 
715 5264 5514 3 
716 5264 5263 1 
717 4695 4696 1 
718 4751 6005 2 
719 3109 4695 2 
720 488 5264 3 
721 488 487 1 
722 1054 1053 1 
723 2661 3921 2 
724 3466 4478 3 
725 3466 3465 1 
726 4696 900 3 
727 50 1664 3 
728 50 49 1 
729 50 4202 3 
730 891 2393 2 
731 4202 4752 3 
732 4202 4201 1 
733 2336 454 3 
734 2336 2335 1 
735 301 4199 2 
736 1439 3265 2 
737 5012 2336 3 
738 5012 5011 1 
739 454 5012 3 
740 454 453 1 
741 5318 2994 3 
742 5318 5317 1 
743 4892 2994 3 
744 4892 4891 1 
745 4892 5318 3 
746 2994 1076 3 
747 2994 2993 1 
748 1076 4892 3 
749 1076 1075 1 
750 1076 5318 3 
751 669 5801 2 
752 3497 4975 2 
753 515 2993 2 
754 5313 5417 2 
755 5539 5540 1 
756 86 85 1 
757 826 4200 3 
758 826 825 1 
759 1310 86 3 
760 5802 4618 3 
761 5802 5801 1 
762 1268 5802 3 
763 1268 1267 1 
764 4526 362 3 
765 4526 4525 1 
766 362 3728 3 
767 362 361 1 
768 158 3728 3 
769 158 157 1 
770 158 362 3 
771 158 4526 3 
772 3728 4526 3 
773 3728 3727 1 
774 85 2151 2 
775 361 5539 2 
776 4255 4256 1 
777 2564 2563 1 
778 5162 2564 3 
779 5036 5035 1 
780 5036 3546 3 
781 3284 3283 1 
782 3284 4320 3 
783 3284 5036 3 
784 1592 5036 3 
785 5161 5162 1 
786 3546 3545 1 
787 3546 3614 3 
788 3546 4320 3 
789 4320 4319 1 
790 3614 3284 3 
791 3614 4320 3 
792 3943 3944 1 
793 3943 5161 2 
794 521 3535 2 
795 1065 4987 2 
796 2007 4547 2 
797 433 1673 2 
798 433 434 1 
799 1587 6067 2 
800 3958 4258 3 
801 3958 3957 1 
802 1239 3827 2 
803 3768 2174 3 
804 3768 3767 1 
805 3768 4504 3 
806 3768 4548 3 
807 4548 4504 3 
808 4548 4547 1 
809 2174 4548 3 
810 2174 2173 1 
811 4504 2174 3 
812 4504 4503 1 
813 4312 3958 3 
814 4312 4311 1 
815 5332 3800 3 
816 5332 5331 1 
817 4258 4312 3 
818 4258 4257 1 
819 1496 4312 3 
820 1496 1495 1 
821 1496 4258 3 
822 1496 3958 3 
823 711 2469 2 
824 5453 5454 1 
825 1674 6068 3 
826 1674 1673 1 
827 881 5689 2 
828 5689 5690 1 
829 2963 2964 1 
830 2963 3027 2 
831 4868 5900 3 
832 4868 5414 3 
833 4868 5122 3 
834 3360 5414 3 
835 3360 3359 1 
836 5900 3360 3 
837 5900 5899 1 
838 1817 3215 2 
839 712 5122 3 
840 712 711 1 
841 712 5690 3 
842 5122 5542 3 
843 5122 5121 1 
844 5542 712 3 
845 5542 5541 1 
846 2540 2964 3 
847 2540 5690 3 
848 3028 3027 1 
849 3028 5690 3 
850 1126 2964 3 
851 1126 2540 3 
852 1126 3028 3 
853 2964 3028 3 
854 65 187 2 
855 318 3126 3 
856 318 317 1 
857 1818 6134 3 
858 1818 1817 1 
859 5730 1818 3 
860 5730 5729 1 
861 6134 5730 3 
862 6134 6133 1 
863 2091 1425 2 
864 2681 5655 2 
865 2247 6133 2 
866 4416 4730 3 
867 4416 4415 1 
868 3434 2882 3 
869 3434 3433 1 
870 2882 2912 3 
871 2882 2881 1 
872 2912 3434 3 
873 2912 2911 1 
874 4567 4568 1 
875 597 1579 2 
876 5490 5312 3 
877 5312 5311 1 
878 6048 1546 3 
879 6048 6047 1 
880 598 6048 3 
881 598 597 1 
882 598 1732 3 
883 1546 598 3 
884 1546 1545 1 
885 1546 1732 3 
886 41 42 1 
887 41 1545 2 
888 2248 1400 3 
889 2248 2247 1 
890 2248 3458 3 
891 1732 6048 3 
892 1732 1731 1 
893 451 1297 2 
894 4520 5892 3 
895 1370 3858 3 
896 1370 1369 1 
897 410 4520 3 
898 410 1370 3 
899 3457 4025 2 
900 3036 4494 3 
901 3036 3035 1 
902 3036 5862 3 
903 4494 5862 3 
904 4494 4493 1 
905 2234 4494 3 
906 2234 2233 1 
907 2234 3036 3 
908 5862 2234 3 
909 5862 5861 1 
910 5892 1370 3 
911 5892 5891 1 
912 4016 4015 1 
913 5002 3612 3 
914 5002 5001 1 
915 3858 5892 3 
916 3858 3857 1 
917 3858 4520 3 
918 3604 2128 3 
919 2520 1948 3 
920 2520 2519 1 
921 1948 1762 3 
922 1948 1947 1 
923 5803 5891 2 
924 4120 4119 1 
925 3986 4310 3 
926 3986 4120 3 
927 618 3986 3 
928 618 4310 3 
929 618 4120 3 
930 4310 4120 3 
931 4026 5286 3 
932 4026 4025 1 
933 5925 5926 1 
934 184 6092 3 
935 184 183 1 
936 184 2692 3 
937 2692 6092 3 
938 2692 2691 1 
939 1078 184 3 
940 1078 1077 1 
941 1078 2692 3 
942 4309 4310 1 
943 3211 4309 2 
944 6092 1078 3 
945 6092 6091 1 
946 5804 5803 1 
947 5064 2724 3 
948 5064 5063 1 
949 5064 5804 3 
950 116 5804 3 
951 116 115 1 
952 116 2724 3 
953 116 5064 3 
954 3489 3490 1 
955 3489 3571 2 
956 5128 4188 3 
957 5128 5127 1 
958 166 165 1 
959 4626 460 3 
960 4626 4625 1 
961 713 3989 2 
962 898 4096 3 
963 4009 5487 2 
964 5241 6091 2 
965 897 898 1 
966 3081 3533 2 
967 2704 3310 3 
968 2704 3494 3 
969 2704 3586 3 
970 2274 3110 3 
971 2274 2273 1 
972 2274 4804 3 
973 2274 5388 3 
974 5388 4804 3 
975 5388 5387 1 
976 1070 3900 3 
977 1070 1069 1 
978 4820 4626 3 
979 4820 4819 1 
980 2335 5379 2 
981 6006 4616 3 
982 6006 6005 1 
983 2384 6006 3 
984 2384 2383 1 
985 2384 4674 3 
986 2384 4616 3 
987 4616 4674 3 
988 4616 4615 1 
989 5010 1768 3 
990 5010 5009 1 
991 1768 5552 3 
992 1768 1767 1 
993 1768 3922 3 
994 5552 5010 3 
995 5552 5551 1 
996 3922 5010 3 
997 3922 3921 1 
998 3922 5552 3 
999 4674 6006 3 
1000 4674 4673 1 
1001 459 4011 2 
1002 4024 142 3 
1003 4024 4023 1 
1004 3128 466 3 
1005 3128 3127 1 
1006 466 4438 3 
1007 466 465 1 
1008 4438 3128 3 
1009 4438 4437 1 
1010 265 266 1 
1011 265 3899 2 
1012 1069 4201 2 
1013 117 6123 2 
1014 4557 5551 2 
1015 2087 4023 2 
1016 2273 3961 2 
1017 1111 1112 1 
1018 1111 2471 2 
1019 4778 2280 3 
1020 4778 4777 1 
1021 2280 5716 3 
1022 2280 2279 1 
1023 2280 3764 3 
1024 4437 4587 2 
1025 580 138 3 
1026 580 579 1 
1027 580 4558 3 
1028 4558 2226 3 
1029 4558 4557 1 
1030 138 2226 3 
1031 138 137 1 
1032 138 4558 3 
1033 2279 4021 2 
1034 4253 4617 2 
1035 4618 1268 3 
1036 4618 4617 1 
1037 1248 384 3 
1038 4021 4022 1 
1039 6216 3498 3 
1040 6216 6215 1 
1041 4588 6216 3 
1042 4588 4587 1 
1043 4588 5252 3 
1044 3498 4588 3 
1045 3498 3497 1 
1046 3498 5252 3 
1047 5252 6216 3 
1048 5252 5251 1 
1049 384 383 1 
1050 1075 5277 2 
1051 157 1535 2 
1052 5296 3850 3 
1053 5296 5295 1 
1054 2387 2563 2 
1055 4180 5296 3 
1056 4180 4179 1 
1057 1659 5703 2 
1058 1806 1805 1 
1059 912 2858 3 
1060 912 911 1 
1061 912 5712 3 
1062 5712 2858 3 
1063 5712 5711 1 
1064 232 5712 3 
1065 232 231 1 
1066 232 912 3 
1067 2858 232 3 
1068 2858 2857 1 
1069 3545 5251 2 
1070 605 4245 2 
1071 3142 398 3 
1072 3142 3141 1 
1073 3142 3698 3 
1074 5299 5300 1 
1075 398 3698 3 
1076 398 397 1 
1077 3698 3004 3 
1078 3698 3697 1 
1079 4387 5295 2 
1080 1165 5495 2 
1081 1574 5296 3 
1082 1574 1573 1 
1083 1574 4180 3 
1084 1808 1807 1 
1085 1808 3166 3 
1086 1660 1659 1 
1087 1660 3394 3 
1088 1660 1808 3 
1089 2112 2111 1 
1090 2112 1660 3 
1091 2112 3166 3 
1092 3394 2112 3 
1093 3166 3165 1 
1094 3166 3394 3 
1095 1608 1808 3 
1096 2954 6128 3 
1097 2954 2953 1 
1098 4256 1678 3 
1099 1678 1677 1 
1100 2806 4668 3 
1101 2806 2805 1 
1102 1097 4179 2 
1103 5669 5670 1 
1104 413 2889 2 
1105 1166 5896 3 
1106 1166 1165 1 
1107 4397 5641 2 
1108 414 2806 3 
1109 414 413 1 
1110 5896 1570 3 
1111 5896 5895 1 
1112 2390 1166 3 
1113 2390 2389 1 
1114 2390 5896 3 
1115 1570 1166 3 
1116 1570 1569 1 
1117 1570 2390 3 
1118 5641 5642 1 
1119 3957 5091 2 
1120 570 5410 3 
1121 5410 5409 1 
1122 4117 4118 1 
1123 887 4345 2 
1124 188 888 3 
1125 188 187 1 
1126 888 1500 3 
1127 888 887 1 
1128 1500 188 3 
1129 1500 1499 1 
1130 5899 3359 2 
1131 4222 3428 3 
1132 4222 4221 1 
1133 3428 1486 3 
1134 3428 3427 1 
1135 1486 4222 3 
1136 1486 1485 1 
1137 503 2749 2 
1138 279 1967 2 
1139 1918 1968 3 
1140 1918 1917 1 
1141 2851 3687 2 
1142 4221 5121 2 
1143 1968 2310 3 
1144 1968 1967 1 
1145 2310 1918 3 
1146 2310 2309 1 
1147 4033 4034 1 
1148 1355 5475 2 
1149 5475 5476 1 
1150 2092 1426 3 
1151 2092 2091 1 
1152 4740 1716 3 
1153 4740 4739 1 
1154 4470 4740 3 
1155 4470 4469 1 
1156 406 4186 3 
1157 406 405 1 
1158 3688 406 3 
1159 3688 3687 1 
1160 3688 4186 3 
1161 6098 6097 1 
1162 6098 4690 3 
1163 3024 406 3 
1164 3024 3023 1 
1165 3024 3688 3 
1166 4186 3024 3 
1167 4186 4185 1 
1168 1356 1355 1 
1169 1356 6098 3 
1170 4448 6098 3 
1171 4448 4690 3 
1172 4448 6028 3 
1173 4690 4689 1 
1174 4690 5808 3 
1175 4018 5656 3 
1176 4018 4017 1 
1177 5808 5807 1 
1178 5808 1356 3 
1179 5656 6088 3 
1180 5656 5655 1 
1181 1716 4470 3 
1182 1716 1715 1 
1183 962 1400 3 
1184 962 961 1 
1185 962 2248 3 
1186 3458 962 3 
1187 3458 3457 1 
1188 452 1298 3 
1189 452 451 1 
1190 452 4220 3 
1191 5762 452 3 
1192 5762 5761 1 
1193 1400 3458 3 
1194 1400 1399 1 
1195 3023 4015 2 
1196 1298 5762 3 
1197 1298 1297 1 
1198 1298 4220 3 
1199 4220 5762 3 
1200 4219 4220 1 
1201 4447 4448 1 
1202 4447 4725 2 
1203 4956 4016 3 
1204 664 663 1 
1205 1599 1600 1 
1206 1599 4493 2 
1207 653 961 2 
1208 4893 5761 2 
1209 4955 4956 1 
1210 531 1399 2 
1211 365 366 1 
1212 365 2233 2 
1213 1212 664 3 
1214 654 1962 3 
1215 654 653 1 
1216 654 3640 3 
1217 654 4050 3 
1218 2519 5207 2 
1219 5207 5208 1 
1220 122 2474 3 
1221 122 4732 3 
1222 122 702 3 
1223 702 1556 3 
1224 366 2474 3 
1225 366 1600 3 
1226 366 702 3 
1227 1600 4732 3 
1228 1600 4348 3 
1229 2474 4732 3 
1230 1962 4050 3 
1231 1962 1961 1 
1232 4050 3640 3 
1233 4050 4049 1 
1234 3335 4723 2 
1235 4723 4724 1 
1236 60 572 3 
1237 3528 3527 1 
1238 1556 1555 1 
1239 1556 4348 3 
1240 929 2141 2 
1241 183 779 2 
1242 388 1774 3 
1243 388 387 1 
1244 2142 388 3 
1245 2142 2141 1 
1246 1774 2142 3 
1247 1774 1773 1 
1248 2724 5804 3 
1249 2724 2723 1 
1250 168 2232 3 
1251 168 167 1 
1252 168 780 3 
1253 168 5164 3 
1254 780 5164 3 
1255 780 779 1 
1256 2232 780 3 
1257 2232 2231 1 
1258 2053 2723 2 
1259 2053 2054 1 
1260 460 4820 3 
1261 460 459 1 
1262 141 897 2 
1263 5919 5920 1 
1264 1201 4923 2 
1265 4803 5919 2 
1266 387 5263 2 
1267 347 2741 2 
1268 4277 4625 2 
1269 1457 1767 2 
1270 227 5387 2 
1271 465 4847 2 
1272 3701 6115 2 
1273 6115 6116 1 
1274 1253 3779 2 
1275 5944 14 3 
1276 5944 5943 1 
1277 14 6124 3 
1278 14 13 1 
1279 6124 5944 3 
1280 6124 6123 1 
1281 6257 6258 1 
1282 3502 14 3 
1283 3502 3501 1 
1284 3502 5944 3 
1285 3502 6124 3 
1286 2299 5715 2 
1287 1451 6257 2 
1288 747 3763 2 
1289 747 748 1 
1290 2225 5075 2 
1291 2226 580 3 
1292 2226 2225 1 
1293 13 3697 2 
1294 3904 3984 3 
1295 3904 3903 1 
1296 547 759 2 
1297 759 760 1 
1298 1103 403 2 
1299 2893 6215 2 
1300 3004 398 3 
1301 3004 3003 1 
1302 3004 3142 3 
1303 2857 5769 2 
1304 404 1686 3 
1305 404 403 1 
1306 404 3380 3 
1307 1104 404 3 
1308 1104 1103 1 
1309 1104 3380 3 
1310 1686 1104 3 
1311 1686 1685 1 
1312 1686 3380 3 
1313 3200 6084 3 
1314 3200 3199 1 
1315 4144 2388 3 
1316 2366 3044 3 
1317 2366 2388 3 
1318 2366 3810 3 
1319 5356 3200 3 
1320 5356 5355 1 
1321 707 3931 2 
1322 5781 5782 1 
1323 2568 5956 3 
1324 2568 2567 1 
1325 1807 3707 2 
1326 231 4785 2 
1327 5769 5770 1 
1328 5704 5580 3 
1329 5704 5703 1 
1330 2388 2387 1 
1331 2388 3044 3 
1332 3810 4144 3 
1333 401 6201 2 
1334 40 39 1 
1335 1656 40 3 
1336 4106 2568 3 
1337 4106 4105 1 
1338 3118 3926 3 
1339 3118 3117 1 
1340 871 4531 2 
1341 1091 5437 2 
1342 5580 4330 3 
1343 5580 5579 1 
1344 3003 3045 2 
1345 2245 4203 2 
1346 4330 5704 3 
1347 4330 4329 1 
1348 1536 5704 3 
1349 1536 1535 1 
1350 1536 4330 3 
1351 1536 5580 3 
1352 2983 5781 2 
1353 3671 6025 2 
1354 6025 6026 1 
1355 3926 1434 3 
1356 3926 3925 1 
1357 6202 6201 1 
1358 5243 6127 2 
1359 802 4398 3 
1360 802 3740 3 
1361 802 5642 3 
1362 3393 3394 1 
1363 3393 4553 2 
1364 4398 4397 1 
1365 3740 5642 3 
1366 3740 4398 3 
1367 249 1087 2 
1368 1685 3929 2 
1369 760 6202 3 
1370 5642 4398 3 
1371 1434 3118 3 
1372 1434 1433 1 
1373 1559 2953 2 
1374 569 570 1 
1375 569 1655 2 
1376 1655 1656 1 
1377 1027 1028 1 
1378 721 1027 2 
1379 1490 1489 1 
1380 1537 2345 2 
1381 1028 3294 3 
1382 1028 3426 3 
1383 500 1490 3 
1384 500 5300 3 
1385 3426 6018 3 
1386 2346 2646 3 
1387 2346 2345 1 
1388 300 2346 3 
1389 300 2970 3 
1390 300 1028 3 
1391 1067 4117 2 
1392 1607 4757 2 
1393 1607 1608 1 
1394 3672 3671 1 
1395 3672 4266 3 
1396 3672 6018 3 
1397 4997 4998 1 
1398 4997 6269 2 
1399 1869 1870 1 
1400 4266 6026 3 
1401 4118 3672 3 
1402 4118 6026 3 
1403 4118 4266 3 
1404 5438 4204 3 
1405 5438 5437 1 
1406 6018 6026 3 
1407 6269 6270 1 
1408 792 5438 3 
1409 792 791 1 
1410 5284 4554 3 
1411 5284 5283 1 
1412 4554 1698 3 
1413 4554 4553 1 
1414 1698 5284 3 
1415 1698 1697 1 
1416 4204 792 3 
1417 4204 4203 1 
1418 3322 792 3 
1419 3322 3321 1 
1420 3322 4204 3 
1421 3322 5438 3 
1422 5057 1937 2 
1423 1870 274 3 
1424 1870 4998 3 
1425 274 273 1 
1426 1109 3843 2 
1427 1068 3660 3 
1428 1068 1067 1 
1429 3930 814 3 
1430 3930 3929 1 
1431 5742 1068 3 
1432 5742 5741 1 
1433 5058 1938 3 
1434 5058 5057 1 
1435 5092 3930 3 
1436 5092 5091 1 
1437 1677 3675 2 
1438 4287 5579 2 
1439 814 5092 3 
1440 814 813 1 
1441 3618 100 3 
1442 3618 3617 1 
1443 3618 4758 3 
1444 3030 3326 3 
1445 3030 3029 1 
1446 3271 4401 2 
1447 4606 1068 3 
1448 4606 4605 1 
1449 4606 5742 3 
1450 3660 4606 3 
1451 3660 3659 1 
1452 3660 5742 3 
1453 4758 5590 3 
1454 4758 4757 1 
1455 100 5590 3 
1456 100 99 1 
1457 100 4758 3 
1458 4402 4401 1 
1459 1571 2645 2 
1460 1571 1572 1 
1461 5378 4402 3 
1462 5590 3618 3 
1463 5590 5589 1 
1464 1938 6180 3 
1465 1938 1937 1 
1466 3326 1234 3 
1467 3326 3325 1 
1468 1234 3030 3 
1469 1234 1233 1 
1470 6180 5058 3 
1471 6180 6179 1 
1472 1697 3147 2 
1473 251 1233 2 
1474 3272 3271 1 
1475 252 251 1 
1476 5789 6179 2 
1477 534 2772 3 
1478 534 533 1 
1479 534 1476 3 
1480 2772 1466 3 
1481 2772 2771 1 
1482 5476 252 3 
1483 6327 6328 1 
1484 1465 6131 2 
1485 533 5807 2 
1486 687 5393 2 
1487 1635 4851 2 
1488 5393 5394 1 
1489 4378 932 3 
1490 4378 4377 1 
1491 4034 296 3 
1492 296 295 1 
1493 4991 6097 2 
1494 1726 4056 3 
1495 1726 1725 1 
1496 688 1688 3 
1497 688 687 1 
1498 688 1726 3 
1499 843 4417 2 
1500 4056 688 3 
1501 4056 4055 1 
1502 6027 6028 1 
1503 1688 4056 3 
1504 1688 1687 1 
1505 1688 1726 3 
1506 5253 6027 2 
1507 770 4192 3 
1508 770 769 1 
1509 770 5254 3 
1510 4192 4992 3 
1511 4192 4191 1 
1512 4992 770 3 
1513 4992 4991 1 
1514 4992 5254 3 
1515 5254 4192 3 
1516 5254 5253 1 
1517 844 843 1 
1518 2888 844 3 
1519 2785 4055 2 
1520 769 4955 2 
1521 663 4191 2 
1522 4347 4348 1 
1523 4731 4981 2 
1524 2527 4347 2 
1525 1961 4405 2 
1526 4732 4731 1 
1527 3640 1962 3 
1528 3640 3639 1 
1529 5208 3528 3 
1530 572 571 1 
1531 2473 2474 1 
1532 2473 2829 2 
1533 1211 1747 2 
1534 1211 1212 1 
1535 5634 5316 3 
1536 5164 2232 3 
1537 5164 5163 1 
1538 1432 1431 1 
1539 464 1122 3 
1540 464 463 1 
1541 5163 6147 2 
1542 3084 1432 3 
1543 4012 3812 3 
1544 4012 4011 1 
1545 3812 3780 3 
1546 3812 3811 1 
1547 3780 4012 3 
1548 3780 3779 1 
1549 448 1202 3 
1550 448 447 1 
1551 5562 448 3 
1552 5562 5561 1 
1553 4848 464 3 
1554 4848 4847 1 
1555 1196 464 3 
1556 1196 1195 1 
1557 1196 4848 3 
1558 1122 4848 3 
1559 1122 1121 1 
1560 1122 1196 3 
1561 1202 5562 3 
1562 1202 1201 1 
1563 2231 5799 2 
1564 2222 1458 3 
1565 2222 2221 1 
1566 2222 4278 3 
1567 2222 2562 3 
1568 1458 2562 3 
1569 1458 1457 1 
1570 2562 4278 3 
1571 2562 2561 1 
1572 3760 3759 1 
1573 3760 5222 3 
1574 1022 1021 1 
1575 1022 3760 3 
1576 1022 1254 3 
1577 1358 1022 3 
1578 1358 3760 3 
1579 1358 5222 3 
1580 5222 5221 1 
1581 1740 1739 1 
1582 748 1254 3 
1583 748 1740 3 
1584 381 1085 2 
1585 381 382 1 
1586 1357 1358 1 
1587 1357 5221 2 
1588 2075 5943 2 
1589 1794 6054 3 
1590 1794 1793 1 
1591 1794 2076 3 
1592 1794 3766 3 
1593 6054 3766 3 
1594 6054 6053 1 
1595 2076 6054 3 
1596 2076 2075 1 
1597 1452 1086 3 
1598 1452 1451 1 
1599 1086 2300 3 
1600 1086 1085 1 
1601 1086 4786 3 
1602 2300 1452 3 
1603 2300 2299 1 
1604 2300 4786 3 
1605 3766 2076 3 
1606 3766 3765 1 
1607 3484 3904 3 
1608 3484 3483 1 
1609 3484 3984 3 
1610 3984 2158 3 
1611 3984 3983 1 
1612 2158 3904 3 
1613 2158 2157 1 
1614 2158 3484 3 
1615 4786 1452 3 
1616 4786 4785 1 
1617 3809 3810 1 
1618 5596 722 3 
1619 5596 5595 1 
1620 722 1796 3 
1621 722 721 1 
1622 722 1856 3 
1623 1796 5596 3 
1624 1796 1795 1 
1625 1796 1856 3 
1626 1856 5596 3 
1627 1856 1855 1 
1628 4105 4423 2 
1629 645 3765 2 
1630 2951 3809 2 
1631 2163 5955 2 
1632 2886 1376 3 
1633 2886 2885 1 
1634 2952 1560 3 
1635 2952 2951 1 
1636 2952 4532 3 
1637 2246 1560 3 
1638 2246 2245 1 
1639 2246 2952 3 
1640 4532 2246 3 
1641 4532 4531 1 
1642 1560 4532 3 
1643 1560 1559 1 
1644 6017 6018 1 
1645 6289 6290 1 
1646 4176 5502 3 
1647 4176 4175 1 
1648 3472 4176 3 
1649 3472 3471 1 
1650 3472 3530 3 
1651 1376 74 3 
1652 1376 1375 1 
1653 74 2886 3 
1654 74 73 1 
1655 5502 3472 3 
1656 5502 5501 1 
1657 4265 4266 1 
1658 4265 6017 2 
1659 3695 6289 2 
1660 3696 5520 3 
1661 3696 3695 1 
1662 2164 646 3 
1663 2164 2163 1 
1664 194 2164 3 
1665 194 193 1 
1666 646 194 3 
1667 646 645 1 
1668 626 5728 3 
1669 626 3696 3 
1670 626 5520 3 
1671 2646 2970 3 
1672 2646 2645 1 
1673 2646 3294 3 
1674 4998 5846 3 
1675 4114 4998 3 
1676 5846 5845 1 
1677 2264 5846 3 
1678 2264 4114 3 
1679 791 5965 2 
1680 3530 4176 3 
1681 3530 3529 1 
1682 3530 5502 3 
1683 625 626 1 
1684 625 2599 2 
1685 3059 4969 2 
1686 3617 5727 2 
1687 2658 4126 3 
1688 2658 2657 1 
1689 2085 3243 2 
1690 1670 114 3 
1691 1670 1669 1 
1692 273 2501 2 
1693 4675 5047 2 
1694 2364 3822 3 
1695 2364 2363 1 
1696 3822 4464 3 
1697 3822 3821 1 
1698 4464 2364 3 
1699 4464 4463 1 
1700 399 4995 2 
1701 1466 534 3 
1702 1466 1465 1 
1703 1466 1476 3 
1704 1476 2772 3 
1705 1476 1475 1 
1706 4088 596 3 
1707 4088 4087 1 
1708 3316 2502 3 
1709 3316 3315 1 
1710 3316 4088 3 
1711 596 2502 3 
1712 596 595 1 
1713 596 3316 3 
1714 2502 4088 3 
1715 2502 2501 1 
1716 5452 1972 3 
1717 5452 5451 1 
1718 1972 4566 3 
1719 1972 1971 1 
1720 2892 1972 3 
1721 2892 2891 1 
1722 2892 5452 3 
1723 4566 2892 3 
1724 4566 4565 1 
1725 4566 5452 3 
1726 3064 5460 3 
1727 3064 3063 1 
1728 3064 5394 3 
1729 5460 5144 3 
1730 5460 5459 1 
1731 5394 5928 3 
1732 3248 3247 1 
1733 3248 5394 3 
1734 3248 5060 3 
1735 6259 6260 1 
1736 5144 3064 3 
1737 5144 5143 1 
1738 5645 5646 1 
1739 2533 5645 2 
1740 5928 3248 3 
1741 4852 2180 3 
1742 4852 4851 1 
1743 4418 4852 3 
1744 4418 4417 1 
1745 2180 4418 3 
1746 2180 2179 1 
1747 2325 2887 2 
1748 2887 2888 1 