ITEM: TIMESTEP
0
ITEM: NUMBER OF ENTRIES
7
ITEM: BOX BOUNDS pp pp ff
0.0000000000000000e+00 3.2274861000000001e+01
0.0000000000000000e+00 3.2274861000000001e+01
0.0000000000000000e+00 1.2000000000000000e+01
ITEM: ENTRIES index c_1[1] c_1[2] c_1[3]
1 1 5 1 
2 4 6 1 
3 3 8 1 
4 2 7 1 
5 9 10 1 
6 11 12 1 
7 13 14 1 