ITEM: TIMESTEP
0
ITEM: NUMBER OF ATOMS
14
ITEM: BOX BOUNDS pp pp ff
-20.0000000000000000e+00 3.2274861000000001e+01
-2.0000000000000000e+00 3.2274861000000001e+01
0.0000000000000000e+00 1.2000000000000000e+01
ITEM: ATOMS type mol xu yu zu
1 1 0.00000000 0.00000000 0.00000000
1 1 0.00000000 4.59619407771 0.00000000
1 2 4.59619407771 0.00000000 0.00000000
1 2 4.59619407771 4.59619407771 0.00000000
2 3 1.94454364826 1.94454364826 0.00000000
2 3 2.65165042945 2.65165042945 0.00000000
2 4 1.94454364826 2.65165042945 0.00000000
2 4 2.65165042945 1.94454364826 0.00000000
2 4 -12 0 0.00000000
1 4 -9 0 0.00000000
1 4 -8.5 0 0.00000000
2 4 -5.5 0 0.00000000
1 5 -8.5 3 0.00000000
2 5 -5.5 3 0.00000000


