LAMMPS data file

40 atoms
20 bonds

2 atom types
1 bond types

0.0 12.909944 xlo xhi
0.0 12.909944 ylo yhi
0.0 22.000000 zlo zhi

Masses

1 1
2 1

Atoms

1 1 1 0.000000000000000 0.000000000000000 12.000000000000000
2 1 2 2.000000000000000 2.000000000000000 13.000000000000000
3 2 1 0.000000000000000 0.000000000000000 14.000000000000000
4 2 2 2.000000000000000 2.000000000000000 15.000000000000000
5 3 1 0.000000000000000 0.000000000000000 16.000000000000000
6 3 2 2.000000000000000 2.000000000000000 17.000000000000000
7 4 1 0.000000000000000 0.000000000000000 18.000000000000000
8 4 2 2.000000000000000 2.000000000000000 19.000000000000000
9 5 1 0.000000000000000 0.000000000000000 20.000000000000000
10 5 2 2.000000000000000 2.000000000000000 21.000000000000000
11 6 1 0.000000000000000 6.454972243679029 12.000000000000000
12 6 2 2.000000000000000 8.454972243679029 13.000000000000000
13 7 1 0.000000000000000 6.454972243679029 14.000000000000000
14 7 2 2.000000000000000 8.454972243679029 15.000000000000000
15 8 1 0.000000000000000 6.454972243679029 16.000000000000000
16 8 2 2.000000000000000 8.454972243679029 17.000000000000000
17 9 1 0.000000000000000 6.454972243679029 18.000000000000000
18 9 2 2.000000000000000 8.454972243679029 19.000000000000000
19 10 1 0.000000000000000 6.454972243679029 20.000000000000000
20 10 2 2.000000000000000 8.454972243679029 21.000000000000000
21 11 1 6.454972243679029 0.000000000000000 12.000000000000000
22 11 2 8.454972243679029 2.000000000000000 13.000000000000000
23 12 1 6.454972243679029 0.000000000000000 14.000000000000000
24 12 2 8.454972243679029 2.000000000000000 15.000000000000000
25 13 1 6.454972243679029 0.000000000000000 16.000000000000000
26 13 2 8.454972243679029 2.000000000000000 17.000000000000000
27 14 1 6.454972243679029 0.000000000000000 18.000000000000000
28 14 2 8.454972243679029 2.000000000000000 19.000000000000000
29 15 1 6.454972243679029 0.000000000000000 20.000000000000000
30 15 2 8.454972243679029 2.000000000000000 21.000000000000000
31 16 1 6.454972243679029 6.454972243679029 12.000000000000000
32 16 2 8.454972243679029 8.454972243679029 13.000000000000000
33 17 1 6.454972243679029 6.454972243679029 14.000000000000000
34 17 2 8.454972243679029 8.454972243679029 15.000000000000000
35 18 1 6.454972243679029 6.454972243679029 16.000000000000000
36 18 2 8.454972243679029 8.454972243679029 17.000000000000000
37 19 1 6.454972243679029 6.454972243679029 18.000000000000000
38 19 2 8.454972243679029 8.454972243679029 19.000000000000000
39 20 1 6.454972243679029 6.454972243679029 20.000000000000000
40 20 2 8.454972243679029 8.454972243679029 21.000000000000000

Bonds

1 1 1 2
2 1 3 4
3 1 5 6
4 1 7 8
5 1 9 10
6 1 11 12
7 1 13 14
8 1 15 16
9 1 17 18
10 1 19 20
11 1 21 22
12 1 23 24
13 1 25 26
14 1 27 28
15 1 29 30
16 1 31 32
17 1 33 34
18 1 35 36
19 1 37 38
20 1 39 40
