LAMMPS data file

10 atoms
5 bonds

2 atom types
1 bond types

0.0 50.886751 xlo xhi
0.0 50.886751 ylo yhi
0.0 12.000000 zlo zhi

Masses

1 1
2 1

Atoms

1 1 1 0.000000000000000 0.000000000000000 2.000000000000000
2 1 2 2.000000000000000 2.000000000000000 3.000000000000000

Bonds

1 1 1 2
