LAMMPS data file

400 atoms
200 bonds

2 atom types
1 bond types

0.0 57.735027 xlo xhi
0.0 57.735027 ylo yhi
0.0 16.000000 zlo zhi

Masses

1 1
2 1

Atoms

1 1 1 0.000000000000000 0.000000000000000 12.000000000000000
2 1 2 2.000000000000000 2.000000000000000 13.000000000000000
3 2 1 0.000000000000000 0.000000000000000 14.000000000000000
4 2 2 2.000000000000000 2.000000000000000 15.000000000000000
5 3 1 0.000000000000000 5.773502691896257 12.000000000000000
6 3 2 2.000000000000000 7.773502691896257 13.000000000000000
7 4 1 0.000000000000000 5.773502691896257 14.000000000000000
8 4 2 2.000000000000000 7.773502691896257 15.000000000000000
9 5 1 0.000000000000000 11.547005383792515 12.000000000000000
10 5 2 2.000000000000000 13.547005383792515 13.000000000000000
11 6 1 0.000000000000000 11.547005383792515 14.000000000000000
12 6 2 2.000000000000000 13.547005383792515 15.000000000000000
13 7 1 0.000000000000000 17.320508075688771 12.000000000000000
14 7 2 2.000000000000000 19.320508075688771 13.000000000000000
15 8 1 0.000000000000000 17.320508075688771 14.000000000000000
16 8 2 2.000000000000000 19.320508075688771 15.000000000000000
17 9 1 0.000000000000000 23.094010767585029 12.000000000000000
18 9 2 2.000000000000000 25.094010767585029 13.000000000000000
19 10 1 0.000000000000000 23.094010767585029 14.000000000000000
20 10 2 2.000000000000000 25.094010767585029 15.000000000000000
21 11 1 0.000000000000000 28.867513459481287 12.000000000000000
22 11 2 2.000000000000000 30.867513459481287 13.000000000000000
23 12 1 0.000000000000000 28.867513459481287 14.000000000000000
24 12 2 2.000000000000000 30.867513459481287 15.000000000000000
25 13 1 0.000000000000000 34.641016151377542 12.000000000000000
26 13 2 2.000000000000000 36.641016151377542 13.000000000000000
27 14 1 0.000000000000000 34.641016151377542 14.000000000000000
28 14 2 2.000000000000000 36.641016151377542 15.000000000000000
29 15 1 0.000000000000000 40.414518843273804 12.000000000000000
30 15 2 2.000000000000000 42.414518843273804 13.000000000000000
31 16 1 0.000000000000000 40.414518843273804 14.000000000000000
32 16 2 2.000000000000000 42.414518843273804 15.000000000000000
33 17 1 0.000000000000000 46.188021535170058 12.000000000000000
34 17 2 2.000000000000000 48.188021535170058 13.000000000000000
35 18 1 0.000000000000000 46.188021535170058 14.000000000000000
36 18 2 2.000000000000000 48.188021535170058 15.000000000000000
37 19 1 0.000000000000000 51.961524227066313 12.000000000000000
38 19 2 2.000000000000000 53.961524227066313 13.000000000000000
39 20 1 0.000000000000000 51.961524227066313 14.000000000000000
40 20 2 2.000000000000000 53.961524227066313 15.000000000000000
41 21 1 5.773502691896257 0.000000000000000 12.000000000000000
42 21 2 7.773502691896257 2.000000000000000 13.000000000000000
43 22 1 5.773502691896257 0.000000000000000 14.000000000000000
44 22 2 7.773502691896257 2.000000000000000 15.000000000000000
45 23 1 5.773502691896257 5.773502691896257 12.000000000000000
46 23 2 7.773502691896257 7.773502691896257 13.000000000000000
47 24 1 5.773502691896257 5.773502691896257 14.000000000000000
48 24 2 7.773502691896257 7.773502691896257 15.000000000000000
49 25 1 5.773502691896257 11.547005383792515 12.000000000000000
50 25 2 7.773502691896257 13.547005383792515 13.000000000000000
51 26 1 5.773502691896257 11.547005383792515 14.000000000000000
52 26 2 7.773502691896257 13.547005383792515 15.000000000000000
53 27 1 5.773502691896257 17.320508075688771 12.000000000000000
54 27 2 7.773502691896257 19.320508075688771 13.000000000000000
55 28 1 5.773502691896257 17.320508075688771 14.000000000000000
56 28 2 7.773502691896257 19.320508075688771 15.000000000000000
57 29 1 5.773502691896257 23.094010767585029 12.000000000000000
58 29 2 7.773502691896257 25.094010767585029 13.000000000000000
59 30 1 5.773502691896257 23.094010767585029 14.000000000000000
60 30 2 7.773502691896257 25.094010767585029 15.000000000000000
61 31 1 5.773502691896257 28.867513459481287 12.000000000000000
62 31 2 7.773502691896257 30.867513459481287 13.000000000000000
63 32 1 5.773502691896257 28.867513459481287 14.000000000000000
64 32 2 7.773502691896257 30.867513459481287 15.000000000000000
65 33 1 5.773502691896257 34.641016151377542 12.000000000000000
66 33 2 7.773502691896257 36.641016151377542 13.000000000000000
67 34 1 5.773502691896257 34.641016151377542 14.000000000000000
68 34 2 7.773502691896257 36.641016151377542 15.000000000000000
69 35 1 5.773502691896257 40.414518843273804 12.000000000000000
70 35 2 7.773502691896257 42.414518843273804 13.000000000000000
71 36 1 5.773502691896257 40.414518843273804 14.000000000000000
72 36 2 7.773502691896257 42.414518843273804 15.000000000000000
73 37 1 5.773502691896257 46.188021535170058 12.000000000000000
74 37 2 7.773502691896257 48.188021535170058 13.000000000000000
75 38 1 5.773502691896257 46.188021535170058 14.000000000000000
76 38 2 7.773502691896257 48.188021535170058 15.000000000000000
77 39 1 5.773502691896257 51.961524227066313 12.000000000000000
78 39 2 7.773502691896257 53.961524227066313 13.000000000000000
79 40 1 5.773502691896257 51.961524227066313 14.000000000000000
80 40 2 7.773502691896257 53.961524227066313 15.000000000000000
81 41 1 11.547005383792515 0.000000000000000 12.000000000000000
82 41 2 13.547005383792515 2.000000000000000 13.000000000000000
83 42 1 11.547005383792515 0.000000000000000 14.000000000000000
84 42 2 13.547005383792515 2.000000000000000 15.000000000000000
85 43 1 11.547005383792515 5.773502691896257 12.000000000000000
86 43 2 13.547005383792515 7.773502691896257 13.000000000000000
87 44 1 11.547005383792515 5.773502691896257 14.000000000000000
88 44 2 13.547005383792515 7.773502691896257 15.000000000000000
89 45 1 11.547005383792515 11.547005383792515 12.000000000000000
90 45 2 13.547005383792515 13.547005383792515 13.000000000000000
91 46 1 11.547005383792515 11.547005383792515 14.000000000000000
92 46 2 13.547005383792515 13.547005383792515 15.000000000000000
93 47 1 11.547005383792515 17.320508075688771 12.000000000000000
94 47 2 13.547005383792515 19.320508075688771 13.000000000000000
95 48 1 11.547005383792515 17.320508075688771 14.000000000000000
96 48 2 13.547005383792515 19.320508075688771 15.000000000000000
97 49 1 11.547005383792515 23.094010767585029 12.000000000000000
98 49 2 13.547005383792515 25.094010767585029 13.000000000000000
99 50 1 11.547005383792515 23.094010767585029 14.000000000000000
100 50 2 13.547005383792515 25.094010767585029 15.000000000000000
101 51 1 11.547005383792515 28.867513459481287 12.000000000000000
102 51 2 13.547005383792515 30.867513459481287 13.000000000000000
103 52 1 11.547005383792515 28.867513459481287 14.000000000000000
104 52 2 13.547005383792515 30.867513459481287 15.000000000000000
105 53 1 11.547005383792515 34.641016151377542 12.000000000000000
106 53 2 13.547005383792515 36.641016151377542 13.000000000000000
107 54 1 11.547005383792515 34.641016151377542 14.000000000000000
108 54 2 13.547005383792515 36.641016151377542 15.000000000000000
109 55 1 11.547005383792515 40.414518843273804 12.000000000000000
110 55 2 13.547005383792515 42.414518843273804 13.000000000000000
111 56 1 11.547005383792515 40.414518843273804 14.000000000000000
112 56 2 13.547005383792515 42.414518843273804 15.000000000000000
113 57 1 11.547005383792515 46.188021535170058 12.000000000000000
114 57 2 13.547005383792515 48.188021535170058 13.000000000000000
115 58 1 11.547005383792515 46.188021535170058 14.000000000000000
116 58 2 13.547005383792515 48.188021535170058 15.000000000000000
117 59 1 11.547005383792515 51.961524227066313 12.000000000000000
118 59 2 13.547005383792515 53.961524227066313 13.000000000000000
119 60 1 11.547005383792515 51.961524227066313 14.000000000000000
120 60 2 13.547005383792515 53.961524227066313 15.000000000000000
121 61 1 17.320508075688771 0.000000000000000 12.000000000000000
122 61 2 19.320508075688771 2.000000000000000 13.000000000000000
123 62 1 17.320508075688771 0.000000000000000 14.000000000000000
124 62 2 19.320508075688771 2.000000000000000 15.000000000000000
125 63 1 17.320508075688771 5.773502691896257 12.000000000000000
126 63 2 19.320508075688771 7.773502691896257 13.000000000000000
127 64 1 17.320508075688771 5.773502691896257 14.000000000000000
128 64 2 19.320508075688771 7.773502691896257 15.000000000000000
129 65 1 17.320508075688771 11.547005383792515 12.000000000000000
130 65 2 19.320508075688771 13.547005383792515 13.000000000000000
131 66 1 17.320508075688771 11.547005383792515 14.000000000000000
132 66 2 19.320508075688771 13.547005383792515 15.000000000000000
133 67 1 17.320508075688771 17.320508075688771 12.000000000000000
134 67 2 19.320508075688771 19.320508075688771 13.000000000000000
135 68 1 17.320508075688771 17.320508075688771 14.000000000000000
136 68 2 19.320508075688771 19.320508075688771 15.000000000000000
137 69 1 17.320508075688771 23.094010767585029 12.000000000000000
138 69 2 19.320508075688771 25.094010767585029 13.000000000000000
139 70 1 17.320508075688771 23.094010767585029 14.000000000000000
140 70 2 19.320508075688771 25.094010767585029 15.000000000000000
141 71 1 17.320508075688771 28.867513459481287 12.000000000000000
142 71 2 19.320508075688771 30.867513459481287 13.000000000000000
143 72 1 17.320508075688771 28.867513459481287 14.000000000000000
144 72 2 19.320508075688771 30.867513459481287 15.000000000000000
145 73 1 17.320508075688771 34.641016151377542 12.000000000000000
146 73 2 19.320508075688771 36.641016151377542 13.000000000000000
147 74 1 17.320508075688771 34.641016151377542 14.000000000000000
148 74 2 19.320508075688771 36.641016151377542 15.000000000000000
149 75 1 17.320508075688771 40.414518843273804 12.000000000000000
150 75 2 19.320508075688771 42.414518843273804 13.000000000000000
151 76 1 17.320508075688771 40.414518843273804 14.000000000000000
152 76 2 19.320508075688771 42.414518843273804 15.000000000000000
153 77 1 17.320508075688771 46.188021535170058 12.000000000000000
154 77 2 19.320508075688771 48.188021535170058 13.000000000000000
155 78 1 17.320508075688771 46.188021535170058 14.000000000000000
156 78 2 19.320508075688771 48.188021535170058 15.000000000000000
157 79 1 17.320508075688771 51.961524227066313 12.000000000000000
158 79 2 19.320508075688771 53.961524227066313 13.000000000000000
159 80 1 17.320508075688771 51.961524227066313 14.000000000000000
160 80 2 19.320508075688771 53.961524227066313 15.000000000000000
161 81 1 23.094010767585029 0.000000000000000 12.000000000000000
162 81 2 25.094010767585029 2.000000000000000 13.000000000000000
163 82 1 23.094010767585029 0.000000000000000 14.000000000000000
164 82 2 25.094010767585029 2.000000000000000 15.000000000000000
165 83 1 23.094010767585029 5.773502691896257 12.000000000000000
166 83 2 25.094010767585029 7.773502691896257 13.000000000000000
167 84 1 23.094010767585029 5.773502691896257 14.000000000000000
168 84 2 25.094010767585029 7.773502691896257 15.000000000000000
169 85 1 23.094010767585029 11.547005383792515 12.000000000000000
170 85 2 25.094010767585029 13.547005383792515 13.000000000000000
171 86 1 23.094010767585029 11.547005383792515 14.000000000000000
172 86 2 25.094010767585029 13.547005383792515 15.000000000000000
173 87 1 23.094010767585029 17.320508075688771 12.000000000000000
174 87 2 25.094010767585029 19.320508075688771 13.000000000000000
175 88 1 23.094010767585029 17.320508075688771 14.000000000000000
176 88 2 25.094010767585029 19.320508075688771 15.000000000000000
177 89 1 23.094010767585029 23.094010767585029 12.000000000000000
178 89 2 25.094010767585029 25.094010767585029 13.000000000000000
179 90 1 23.094010767585029 23.094010767585029 14.000000000000000
180 90 2 25.094010767585029 25.094010767585029 15.000000000000000
181 91 1 23.094010767585029 28.867513459481287 12.000000000000000
182 91 2 25.094010767585029 30.867513459481287 13.000000000000000
183 92 1 23.094010767585029 28.867513459481287 14.000000000000000
184 92 2 25.094010767585029 30.867513459481287 15.000000000000000
185 93 1 23.094010767585029 34.641016151377542 12.000000000000000
186 93 2 25.094010767585029 36.641016151377542 13.000000000000000
187 94 1 23.094010767585029 34.641016151377542 14.000000000000000
188 94 2 25.094010767585029 36.641016151377542 15.000000000000000
189 95 1 23.094010767585029 40.414518843273804 12.000000000000000
190 95 2 25.094010767585029 42.414518843273804 13.000000000000000
191 96 1 23.094010767585029 40.414518843273804 14.000000000000000
192 96 2 25.094010767585029 42.414518843273804 15.000000000000000
193 97 1 23.094010767585029 46.188021535170058 12.000000000000000
194 97 2 25.094010767585029 48.188021535170058 13.000000000000000
195 98 1 23.094010767585029 46.188021535170058 14.000000000000000
196 98 2 25.094010767585029 48.188021535170058 15.000000000000000
197 99 1 23.094010767585029 51.961524227066313 12.000000000000000
198 99 2 25.094010767585029 53.961524227066313 13.000000000000000
199 100 1 23.094010767585029 51.961524227066313 14.000000000000000
200 100 2 25.094010767585029 53.961524227066313 15.000000000000000
201 101 1 28.867513459481287 0.000000000000000 12.000000000000000
202 101 2 30.867513459481287 2.000000000000000 13.000000000000000
203 102 1 28.867513459481287 0.000000000000000 14.000000000000000
204 102 2 30.867513459481287 2.000000000000000 15.000000000000000
205 103 1 28.867513459481287 5.773502691896257 12.000000000000000
206 103 2 30.867513459481287 7.773502691896257 13.000000000000000
207 104 1 28.867513459481287 5.773502691896257 14.000000000000000
208 104 2 30.867513459481287 7.773502691896257 15.000000000000000
209 105 1 28.867513459481287 11.547005383792515 12.000000000000000
210 105 2 30.867513459481287 13.547005383792515 13.000000000000000
211 106 1 28.867513459481287 11.547005383792515 14.000000000000000
212 106 2 30.867513459481287 13.547005383792515 15.000000000000000
213 107 1 28.867513459481287 17.320508075688771 12.000000000000000
214 107 2 30.867513459481287 19.320508075688771 13.000000000000000
215 108 1 28.867513459481287 17.320508075688771 14.000000000000000
216 108 2 30.867513459481287 19.320508075688771 15.000000000000000
217 109 1 28.867513459481287 23.094010767585029 12.000000000000000
218 109 2 30.867513459481287 25.094010767585029 13.000000000000000
219 110 1 28.867513459481287 23.094010767585029 14.000000000000000
220 110 2 30.867513459481287 25.094010767585029 15.000000000000000
221 111 1 28.867513459481287 28.867513459481287 12.000000000000000
222 111 2 30.867513459481287 30.867513459481287 13.000000000000000
223 112 1 28.867513459481287 28.867513459481287 14.000000000000000
224 112 2 30.867513459481287 30.867513459481287 15.000000000000000
225 113 1 28.867513459481287 34.641016151377542 12.000000000000000
226 113 2 30.867513459481287 36.641016151377542 13.000000000000000
227 114 1 28.867513459481287 34.641016151377542 14.000000000000000
228 114 2 30.867513459481287 36.641016151377542 15.000000000000000
229 115 1 28.867513459481287 40.414518843273804 12.000000000000000
230 115 2 30.867513459481287 42.414518843273804 13.000000000000000
231 116 1 28.867513459481287 40.414518843273804 14.000000000000000
232 116 2 30.867513459481287 42.414518843273804 15.000000000000000
233 117 1 28.867513459481287 46.188021535170058 12.000000000000000
234 117 2 30.867513459481287 48.188021535170058 13.000000000000000
235 118 1 28.867513459481287 46.188021535170058 14.000000000000000
236 118 2 30.867513459481287 48.188021535170058 15.000000000000000
237 119 1 28.867513459481287 51.961524227066313 12.000000000000000
238 119 2 30.867513459481287 53.961524227066313 13.000000000000000
239 120 1 28.867513459481287 51.961524227066313 14.000000000000000
240 120 2 30.867513459481287 53.961524227066313 15.000000000000000
241 121 1 34.641016151377542 0.000000000000000 12.000000000000000
242 121 2 36.641016151377542 2.000000000000000 13.000000000000000
243 122 1 34.641016151377542 0.000000000000000 14.000000000000000
244 122 2 36.641016151377542 2.000000000000000 15.000000000000000
245 123 1 34.641016151377542 5.773502691896257 12.000000000000000
246 123 2 36.641016151377542 7.773502691896257 13.000000000000000
247 124 1 34.641016151377542 5.773502691896257 14.000000000000000
248 124 2 36.641016151377542 7.773502691896257 15.000000000000000
249 125 1 34.641016151377542 11.547005383792515 12.000000000000000
250 125 2 36.641016151377542 13.547005383792515 13.000000000000000
251 126 1 34.641016151377542 11.547005383792515 14.000000000000000
252 126 2 36.641016151377542 13.547005383792515 15.000000000000000
253 127 1 34.641016151377542 17.320508075688771 12.000000000000000
254 127 2 36.641016151377542 19.320508075688771 13.000000000000000
255 128 1 34.641016151377542 17.320508075688771 14.000000000000000
256 128 2 36.641016151377542 19.320508075688771 15.000000000000000
257 129 1 34.641016151377542 23.094010767585029 12.000000000000000
258 129 2 36.641016151377542 25.094010767585029 13.000000000000000
259 130 1 34.641016151377542 23.094010767585029 14.000000000000000
260 130 2 36.641016151377542 25.094010767585029 15.000000000000000
261 131 1 34.641016151377542 28.867513459481287 12.000000000000000
262 131 2 36.641016151377542 30.867513459481287 13.000000000000000
263 132 1 34.641016151377542 28.867513459481287 14.000000000000000
264 132 2 36.641016151377542 30.867513459481287 15.000000000000000
265 133 1 34.641016151377542 34.641016151377542 12.000000000000000
266 133 2 36.641016151377542 36.641016151377542 13.000000000000000
267 134 1 34.641016151377542 34.641016151377542 14.000000000000000
268 134 2 36.641016151377542 36.641016151377542 15.000000000000000
269 135 1 34.641016151377542 40.414518843273804 12.000000000000000
270 135 2 36.641016151377542 42.414518843273804 13.000000000000000
271 136 1 34.641016151377542 40.414518843273804 14.000000000000000
272 136 2 36.641016151377542 42.414518843273804 15.000000000000000
273 137 1 34.641016151377542 46.188021535170058 12.000000000000000
274 137 2 36.641016151377542 48.188021535170058 13.000000000000000
275 138 1 34.641016151377542 46.188021535170058 14.000000000000000
276 138 2 36.641016151377542 48.188021535170058 15.000000000000000
277 139 1 34.641016151377542 51.961524227066313 12.000000000000000
278 139 2 36.641016151377542 53.961524227066313 13.000000000000000
279 140 1 34.641016151377542 51.961524227066313 14.000000000000000
280 140 2 36.641016151377542 53.961524227066313 15.000000000000000
281 141 1 40.414518843273804 0.000000000000000 12.000000000000000
282 141 2 42.414518843273804 2.000000000000000 13.000000000000000
283 142 1 40.414518843273804 0.000000000000000 14.000000000000000
284 142 2 42.414518843273804 2.000000000000000 15.000000000000000
285 143 1 40.414518843273804 5.773502691896257 12.000000000000000
286 143 2 42.414518843273804 7.773502691896257 13.000000000000000
287 144 1 40.414518843273804 5.773502691896257 14.000000000000000
288 144 2 42.414518843273804 7.773502691896257 15.000000000000000
289 145 1 40.414518843273804 11.547005383792515 12.000000000000000
290 145 2 42.414518843273804 13.547005383792515 13.000000000000000
291 146 1 40.414518843273804 11.547005383792515 14.000000000000000
292 146 2 42.414518843273804 13.547005383792515 15.000000000000000
293 147 1 40.414518843273804 17.320508075688771 12.000000000000000
294 147 2 42.414518843273804 19.320508075688771 13.000000000000000
295 148 1 40.414518843273804 17.320508075688771 14.000000000000000
296 148 2 42.414518843273804 19.320508075688771 15.000000000000000
297 149 1 40.414518843273804 23.094010767585029 12.000000000000000
298 149 2 42.414518843273804 25.094010767585029 13.000000000000000
299 150 1 40.414518843273804 23.094010767585029 14.000000000000000
300 150 2 42.414518843273804 25.094010767585029 15.000000000000000
301 151 1 40.414518843273804 28.867513459481287 12.000000000000000
302 151 2 42.414518843273804 30.867513459481287 13.000000000000000
303 152 1 40.414518843273804 28.867513459481287 14.000000000000000
304 152 2 42.414518843273804 30.867513459481287 15.000000000000000
305 153 1 40.414518843273804 34.641016151377542 12.000000000000000
306 153 2 42.414518843273804 36.641016151377542 13.000000000000000
307 154 1 40.414518843273804 34.641016151377542 14.000000000000000
308 154 2 42.414518843273804 36.641016151377542 15.000000000000000
309 155 1 40.414518843273804 40.414518843273804 12.000000000000000
310 155 2 42.414518843273804 42.414518843273804 13.000000000000000
311 156 1 40.414518843273804 40.414518843273804 14.000000000000000
312 156 2 42.414518843273804 42.414518843273804 15.000000000000000
313 157 1 40.414518843273804 46.188021535170058 12.000000000000000
314 157 2 42.414518843273804 48.188021535170058 13.000000000000000
315 158 1 40.414518843273804 46.188021535170058 14.000000000000000
316 158 2 42.414518843273804 48.188021535170058 15.000000000000000
317 159 1 40.414518843273804 51.961524227066313 12.000000000000000
318 159 2 42.414518843273804 53.961524227066313 13.000000000000000
319 160 1 40.414518843273804 51.961524227066313 14.000000000000000
320 160 2 42.414518843273804 53.961524227066313 15.000000000000000
321 161 1 46.188021535170058 0.000000000000000 12.000000000000000
322 161 2 48.188021535170058 2.000000000000000 13.000000000000000
323 162 1 46.188021535170058 0.000000000000000 14.000000000000000
324 162 2 48.188021535170058 2.000000000000000 15.000000000000000
325 163 1 46.188021535170058 5.773502691896257 12.000000000000000
326 163 2 48.188021535170058 7.773502691896257 13.000000000000000
327 164 1 46.188021535170058 5.773502691896257 14.000000000000000
328 164 2 48.188021535170058 7.773502691896257 15.000000000000000
329 165 1 46.188021535170058 11.547005383792515 12.000000000000000
330 165 2 48.188021535170058 13.547005383792515 13.000000000000000
331 166 1 46.188021535170058 11.547005383792515 14.000000000000000
332 166 2 48.188021535170058 13.547005383792515 15.000000000000000
333 167 1 46.188021535170058 17.320508075688771 12.000000000000000
334 167 2 48.188021535170058 19.320508075688771 13.000000000000000
335 168 1 46.188021535170058 17.320508075688771 14.000000000000000
336 168 2 48.188021535170058 19.320508075688771 15.000000000000000
337 169 1 46.188021535170058 23.094010767585029 12.000000000000000
338 169 2 48.188021535170058 25.094010767585029 13.000000000000000
339 170 1 46.188021535170058 23.094010767585029 14.000000000000000
340 170 2 48.188021535170058 25.094010767585029 15.000000000000000
341 171 1 46.188021535170058 28.867513459481287 12.000000000000000
342 171 2 48.188021535170058 30.867513459481287 13.000000000000000
343 172 1 46.188021535170058 28.867513459481287 14.000000000000000
344 172 2 48.188021535170058 30.867513459481287 15.000000000000000
345 173 1 46.188021535170058 34.641016151377542 12.000000000000000
346 173 2 48.188021535170058 36.641016151377542 13.000000000000000
347 174 1 46.188021535170058 34.641016151377542 14.000000000000000
348 174 2 48.188021535170058 36.641016151377542 15.000000000000000
349 175 1 46.188021535170058 40.414518843273804 12.000000000000000
350 175 2 48.188021535170058 42.414518843273804 13.000000000000000
351 176 1 46.188021535170058 40.414518843273804 14.000000000000000
352 176 2 48.188021535170058 42.414518843273804 15.000000000000000
353 177 1 46.188021535170058 46.188021535170058 12.000000000000000
354 177 2 48.188021535170058 48.188021535170058 13.000000000000000
355 178 1 46.188021535170058 46.188021535170058 14.000000000000000
356 178 2 48.188021535170058 48.188021535170058 15.000000000000000
357 179 1 46.188021535170058 51.961524227066313 12.000000000000000
358 179 2 48.188021535170058 53.961524227066313 13.000000000000000
359 180 1 46.188021535170058 51.961524227066313 14.000000000000000
360 180 2 48.188021535170058 53.961524227066313 15.000000000000000
361 181 1 51.961524227066313 0.000000000000000 12.000000000000000
362 181 2 53.961524227066313 2.000000000000000 13.000000000000000
363 182 1 51.961524227066313 0.000000000000000 14.000000000000000
364 182 2 53.961524227066313 2.000000000000000 15.000000000000000
365 183 1 51.961524227066313 5.773502691896257 12.000000000000000
366 183 2 53.961524227066313 7.773502691896257 13.000000000000000
367 184 1 51.961524227066313 5.773502691896257 14.000000000000000
368 184 2 53.961524227066313 7.773502691896257 15.000000000000000
369 185 1 51.961524227066313 11.547005383792515 12.000000000000000
370 185 2 53.961524227066313 13.547005383792515 13.000000000000000
371 186 1 51.961524227066313 11.547005383792515 14.000000000000000
372 186 2 53.961524227066313 13.547005383792515 15.000000000000000
373 187 1 51.961524227066313 17.320508075688771 12.000000000000000
374 187 2 53.961524227066313 19.320508075688771 13.000000000000000
375 188 1 51.961524227066313 17.320508075688771 14.000000000000000
376 188 2 53.961524227066313 19.320508075688771 15.000000000000000
377 189 1 51.961524227066313 23.094010767585029 12.000000000000000
378 189 2 53.961524227066313 25.094010767585029 13.000000000000000
379 190 1 51.961524227066313 23.094010767585029 14.000000000000000
380 190 2 53.961524227066313 25.094010767585029 15.000000000000000
381 191 1 51.961524227066313 28.867513459481287 12.000000000000000
382 191 2 53.961524227066313 30.867513459481287 13.000000000000000
383 192 1 51.961524227066313 28.867513459481287 14.000000000000000
384 192 2 53.961524227066313 30.867513459481287 15.000000000000000
385 193 1 51.961524227066313 34.641016151377542 12.000000000000000
386 193 2 53.961524227066313 36.641016151377542 13.000000000000000
387 194 1 51.961524227066313 34.641016151377542 14.000000000000000
388 194 2 53.961524227066313 36.641016151377542 15.000000000000000
389 195 1 51.961524227066313 40.414518843273804 12.000000000000000
390 195 2 53.961524227066313 42.414518843273804 13.000000000000000
391 196 1 51.961524227066313 40.414518843273804 14.000000000000000
392 196 2 53.961524227066313 42.414518843273804 15.000000000000000
393 197 1 51.961524227066313 46.188021535170058 12.000000000000000
394 197 2 53.961524227066313 48.188021535170058 13.000000000000000
395 198 1 51.961524227066313 46.188021535170058 14.000000000000000
396 198 2 53.961524227066313 48.188021535170058 15.000000000000000
397 199 1 51.961524227066313 51.961524227066313 12.000000000000000
398 199 2 53.961524227066313 53.961524227066313 13.000000000000000
399 200 1 51.961524227066313 51.961524227066313 14.000000000000000
400 200 2 53.961524227066313 53.961524227066313 15.000000000000000

Bonds

1 1 1 2
2 1 3 4
3 1 5 6
4 1 7 8
5 1 9 10
6 1 11 12
7 1 13 14
8 1 15 16
9 1 17 18
10 1 19 20
11 1 21 22
12 1 23 24
13 1 25 26
14 1 27 28
15 1 29 30
16 1 31 32
17 1 33 34
18 1 35 36
19 1 37 38
20 1 39 40
21 1 41 42
22 1 43 44
23 1 45 46
24 1 47 48
25 1 49 50
26 1 51 52
27 1 53 54
28 1 55 56
29 1 57 58
30 1 59 60
31 1 61 62
32 1 63 64
33 1 65 66
34 1 67 68
35 1 69 70
36 1 71 72
37 1 73 74
38 1 75 76
39 1 77 78
40 1 79 80
41 1 81 82
42 1 83 84
43 1 85 86
44 1 87 88
45 1 89 90
46 1 91 92
47 1 93 94
48 1 95 96
49 1 97 98
50 1 99 100
51 1 101 102
52 1 103 104
53 1 105 106
54 1 107 108
55 1 109 110
56 1 111 112
57 1 113 114
58 1 115 116
59 1 117 118
60 1 119 120
61 1 121 122
62 1 123 124
63 1 125 126
64 1 127 128
65 1 129 130
66 1 131 132
67 1 133 134
68 1 135 136
69 1 137 138
70 1 139 140
71 1 141 142
72 1 143 144
73 1 145 146
74 1 147 148
75 1 149 150
76 1 151 152
77 1 153 154
78 1 155 156
79 1 157 158
80 1 159 160
81 1 161 162
82 1 163 164
83 1 165 166
84 1 167 168
85 1 169 170
86 1 171 172
87 1 173 174
88 1 175 176
89 1 177 178
90 1 179 180
91 1 181 182
92 1 183 184
93 1 185 186
94 1 187 188
95 1 189 190
96 1 191 192
97 1 193 194
98 1 195 196
99 1 197 198
100 1 199 200
101 1 201 202
102 1 203 204
103 1 205 206
104 1 207 208
105 1 209 210
106 1 211 212
107 1 213 214
108 1 215 216
109 1 217 218
110 1 219 220
111 1 221 222
112 1 223 224
113 1 225 226
114 1 227 228
115 1 229 230
116 1 231 232
117 1 233 234
118 1 235 236
119 1 237 238
120 1 239 240
121 1 241 242
122 1 243 244
123 1 245 246
124 1 247 248
125 1 249 250
126 1 251 252
127 1 253 254
128 1 255 256
129 1 257 258
130 1 259 260
131 1 261 262
132 1 263 264
133 1 265 266
134 1 267 268
135 1 269 270
136 1 271 272
137 1 273 274
138 1 275 276
139 1 277 278
140 1 279 280
141 1 281 282
142 1 283 284
143 1 285 286
144 1 287 288
145 1 289 290
146 1 291 292
147 1 293 294
148 1 295 296
149 1 297 298
150 1 299 300
151 1 301 302
152 1 303 304
153 1 305 306
154 1 307 308
155 1 309 310
156 1 311 312
157 1 313 314
158 1 315 316
159 1 317 318
160 1 319 320
161 1 321 322
162 1 323 324
163 1 325 326
164 1 327 328
165 1 329 330
166 1 331 332
167 1 333 334
168 1 335 336
169 1 337 338
170 1 339 340
171 1 341 342
172 1 343 344
173 1 345 346
174 1 347 348
175 1 349 350
176 1 351 352
177 1 353 354
178 1 355 356
179 1 357 358
180 1 359 360
181 1 361 362
182 1 363 364
183 1 365 366
184 1 367 368
185 1 369 370
186 1 371 372
187 1 373 374
188 1 375 376
189 1 377 378
190 1 379 380
191 1 381 382
192 1 383 384
193 1 385 386
194 1 387 388
195 1 389 390
196 1 391 392
197 1 393 394
198 1 395 396
199 1 397 398
200 1 399 400
