ITEM: TIMESTEP
8680
ITEM: NUMBER OF ENTRIES
3125
ITEM: BOX BOUNDS pp pp ff
0.0000000000000000e+00 7.2168784000000002e+01
0.0000000000000000e+00 7.2168784000000002e+01
0.0000000000000000e+00 1.2000000000000000e+01
ITEM: ENTRIES index c_1[1] c_1[2] c_1[3]
1 273 274 1 
2 501 502 1 
3 491 492 1 
4 1019 1020 1 
5 1753 1754 1 
6 2001 2002 1 
7 1751 1752 1 
8 2997 2998 1 
9 2501 2502 1 
10 2025 2026 1 
11 3241 3242 1 
12 3005 3006 1 
13 3261 3262 1 
14 4263 4264 1 
15 4253 4254 1 
16 5011 5012 1 
17 5263 5264 1 
18 5493 5494 1 
19 4753 4754 1 
20 5743 5744 1 
21 4761 4762 1 
22 4755 4756 1 
23 5491 5492 1 
24 5267 5268 1 
25 6001 6002 1 
26 5511 5512 1 
27 5751 5752 1 
28 243 244 1 
29 5509 5510 1 
30 11 12 1 
31 765 766 1 
32 1013 1014 1 
33 511 512 1 
34 773 774 1 
35 1513 1514 1 
36 1501 1502 1 
37 1793 1794 1 
38 1511 1512 1 
39 1271 1272 1 
40 1773 1774 1 
41 2013 2014 1 
42 2031 2032 1 
43 2781 2782 1 
44 2021 2022 1 
45 2263 2264 1 
46 2497 2498 1 
47 2763 2764 1 
48 2973 2974 1 
49 2783 2784 1 
50 3765 3766 1 
51 3511 3512 1 
52 3271 3272 1 
53 4021 4022 1 
54 4255 4256 1 
55 4515 4516 1 
56 4775 4776 1 
57 4521 4522 1 
58 5023 5024 1 
59 5513 5514 1 
60 5777 5778 1 
61 5279 5280 1 
62 285 286 1 
63 5775 5776 1 
64 6055 6056 1 
65 57 58 1 
66 521 522 1 
67 783 784 1 
68 775 776 1 
69 1281 1282 1 
70 753 754 1 
71 771 772 1 
72 763 764 1 
73 1523 1524 1 
74 1023 1024 1 
75 1783 1784 1 
76 2041 2042 1 
77 2023 2024 1 
78 2773 2774 1 
79 2271 2272 1 
80 2273 2274 1 
81 2761 2762 1 
82 2753 2754 1 
83 3003 3004 1 
84 2523 2524 1 
85 3313 3314 1 
86 3013 3014 1 
87 3281 3282 1 
88 3289 3290 1 
89 4525 4526 1 
90 4531 4532 1 
91 4765 4766 1 
92 5021 5022 1 
93 5791 5792 1 
94 6011 6012 1 
95 277 278 1 
96 51 52 1 
97 1285 1286 1 
98 1531 1532 1 
99 1781 1782 1 
100 2057 2058 1 
101 1775 1776 1 
102 2535 2536 1 
103 2035 2036 1 
104 2793 2794 1 
105 2555 2556 1 
106 3031 3032 1 
107 2801 2802 1 
108 3301 3302 1 
109 2791 2792 1 
110 3541 3542 1 
111 3545 3546 1 
112 3781 3782 1 
113 3791 3792 1 
114 4047 4048 1 
115 4541 4542 1 
116 4533 4534 1 
117 4787 4788 1 
118 5043 5044 1 
119 5283 5284 1 
120 4543 4544 1 
121 5273 5274 1 
122 6037 6038 1 
123 41 42 1 
124 6045 6046 1 
125 6031 6032 1 
126 5801 5802 1 
127 533 534 1 
128 1055 1056 1 
129 545 546 1 
130 1307 1308 1 
131 541 542 1 
132 1291 1292 1 
133 1791 1792 1 
134 1521 1522 1 
135 2521 2522 1 
136 2043 2044 1 
137 2039 2040 1 
138 2051 2052 1 
139 2315 2316 1 
140 2291 2292 1 
141 3041 3042 1 
142 3273 3274 1 
143 3051 3052 1 
144 3293 3294 1 
145 3801 3802 1 
146 3531 3532 1 
147 4041 4042 1 
148 4053 4054 1 
149 4061 4062 1 
150 4303 4304 1 
151 4305 4306 1 
152 4077 4078 1 
153 4563 4564 1 
154 5055 5056 1 
155 5041 5042 1 
156 4791 4792 1 
157 5053 5054 1 
158 5051 5052 1 
159 4803 4804 1 
160 5301 5302 1 
161 5543 5544 1 
162 5295 5296 1 
163 5809 5810 1 
164 5793 5794 1 
165 5561 5562 1 
166 5527 5528 1 
167 71 72 1 
168 6079 6080 1 
169 301 302 1 
170 6053 6054 1 
171 567 568 1 
172 823 824 1 
173 1313 1314 1 
174 1331 1332 1 
175 1059 1060 1 
176 1533 1534 1 
177 1801 1802 1 
178 2071 2072 1 
179 1563 1564 1 
180 2551 2552 1 
181 1821 1822 1 
182 2803 2804 1 
183 2811 2812 1 
184 2565 2566 1 
185 3335 3336 1 
186 3065 3066 1 
187 3311 3312 1 
188 3819 3820 1 
189 3563 3564 1 
190 3811 3812 1 
191 5065 5066 1 
192 5073 5074 1 
193 4585 4586 1 
194 4545 4546 1 
195 5321 5322 1 
196 6063 6064 1 
197 311 312 1 
198 581 582 1 
199 571 572 1 
200 565 566 1 
201 561 562 1 
202 1073 1074 1 
203 1581 1582 1 
204 1831 1832 1 
205 1805 1806 1 
206 2313 2314 1 
207 2561 2562 1 
208 2563 2564 1 
209 2835 2836 1 
210 3331 3332 1 
211 3575 3576 1 
212 3853 3854 1 
213 3081 3082 1 
214 3813 3814 1 
215 3823 3824 1 
216 4073 4074 1 
217 4063 4064 1 
218 4081 4082 1 
219 4071 4072 1 
220 4813 4814 1 
221 4807 4808 1 
222 5333 5334 1 
223 5071 5072 1 
224 5573 5574 1 
225 5327 5328 1 
226 5571 5572 1 
227 6081 6082 1 
228 6083 6084 1 
229 583 584 1 
230 313 314 1 
231 347 348 1 
232 1573 1574 1 
233 1343 1344 1 
234 1841 1842 1 
235 2323 2324 1 
236 2573 2574 1 
237 2083 2084 1 
238 2841 2842 1 
239 2603 2604 1 
240 2821 2822 1 
241 3083 3084 1 
242 3591 3592 1 
243 3831 3832 1 
244 3587 3588 1 
245 4333 4334 1 
246 4343 4344 1 
247 4577 4578 1 
248 4591 4592 1 
249 4593 4594 1 
250 4561 4562 1 
251 5083 5084 1 
252 5347 5348 1 
253 5553 5554 1 
254 5581 5582 1 
255 5841 5842 1 
256 5597 5598 1 
257 81 82 1 
258 5839 5840 1 
259 355 356 1 
260 341 342 1 
261 833 834 1 
262 361 362 1 
263 1103 1104 1 
264 1091 1092 1 
265 1849 1850 1 
266 1593 1594 1 
267 2105 2106 1 
268 2583 2584 1 
269 2601 2602 1 
270 2101 2102 1 
271 3073 3074 1 
272 3581 3582 1 
273 3341 3342 1 
274 3347 3348 1 
275 3843 3844 1 
276 3593 3594 1 
277 4083 4084 1 
278 4099 4100 1 
279 4105 4106 1 
280 5095 5096 1 
281 4595 4596 1 
282 4841 4842 1 
283 4831 4832 1 
284 4851 4852 1 
285 5101 5102 1 
286 5343 5344 1 
287 5579 5580 1 
288 351 352 1 
289 113 114 1 
290 617 618 1 
291 641 642 1 
292 591 592 1 
293 1101 1102 1 
294 1341 1342 1 
295 1111 1112 1 
296 1361 1362 1 
297 1583 1584 1 
298 2115 2116 1 
299 2113 2114 1 
300 1861 1862 1 
301 2623 2624 1 
302 2103 2104 1 
303 2343 2344 1 
304 2869 2870 1 
305 3115 3116 1 
306 2851 2852 1 
307 3103 3104 1 
308 3091 3092 1 
309 3863 3864 1 
310 3101 3102 1 
311 4101 4102 1 
312 4603 4604 1 
313 5105 5106 1 
314 5593 5594 1 
315 4853 4854 1 
316 5351 5352 1 
317 5365 5366 1 
318 6091 6092 1 
319 5873 5874 1 
320 831 832 1 
321 613 614 1 
322 133 134 1 
323 633 634 1 
324 883 884 1 
325 1351 1352 1 
326 1371 1372 1 
327 1373 1374 1 
328 1601 1602 1 
329 1643 1644 1 
330 2643 2644 1 
331 2381 2382 1 
332 2853 2854 1 
333 2591 2592 1 
334 2631 2632 1 
335 2861 2862 1 
336 3375 3376 1 
337 3121 3122 1 
338 2871 2872 1 
339 3371 3372 1 
340 3361 3362 1 
341 3611 3612 1 
342 3865 3866 1 
343 4365 4366 1 
344 4383 4384 1 
345 5131 5132 1 
346 4875 4876 1 
347 4611 4612 1 
348 5633 5634 1 
349 5601 5602 1 
350 6101 6102 1 
351 5881 5882 1 
352 6113 6114 1 
353 373 374 1 
354 901 902 1 
355 651 652 1 
356 1131 1132 1 
357 631 632 1 
358 1123 1124 1 
359 873 874 1 
360 1635 1636 1 
361 1641 1642 1 
362 1621 1622 1 
363 1881 1882 1 
364 2121 2122 1 
365 2625 2626 1 
366 3407 3408 1 
367 3395 3396 1 
368 3111 3112 1 
369 3123 3124 1 
370 3117 3118 1 
371 3393 3394 1 
372 3881 3882 1 
373 3621 3622 1 
374 3901 3902 1 
375 3647 3648 1 
376 4363 4364 1 
377 3633 3634 1 
378 3883 3884 1 
379 5121 5122 1 
380 4885 4886 1 
381 5381 5382 1 
382 5373 5374 1 
383 5391 5392 1 
384 6111 6112 1 
385 6151 6152 1 
386 6121 6122 1 
387 121 122 1 
388 147 148 1 
389 6143 6144 1 
390 391 392 1 
391 645 646 1 
392 653 654 1 
393 1633 1634 1 
394 1903 1904 1 
395 1395 1396 1 
396 1383 1384 1 
397 1883 1884 1 
398 2153 2154 1 
399 1631 1632 1 
400 2641 2642 1 
401 2633 2634 1 
402 2891 2892 1 
403 2913 2914 1 
404 3381 3382 1 
405 3651 3652 1 
406 4375 4376 1 
407 4381 4382 1 
408 3905 3906 1 
409 3893 3894 1 
410 3873 3874 1 
411 3895 3896 1 
412 4641 4642 1 
413 4391 4392 1 
414 4891 4892 1 
415 4621 4622 1 
416 4141 4142 1 
417 4631 4632 1 
418 4913 4914 1 
419 4903 4904 1 
420 4873 4874 1 
421 5403 5404 1 
422 5665 5666 1 
423 5901 5902 1 
424 141 142 1 
425 151 152 1 
426 163 164 1 
427 667 668 1 
428 911 912 1 
429 1151 1152 1 
430 1411 1412 1 
431 1679 1680 1 
432 1393 1394 1 
433 2163 2164 1 
434 1885 1886 1 
435 2391 2392 1 
436 2413 2414 1 
437 2655 2656 1 
438 2161 2162 1 
439 2911 2912 1 
440 2901 2902 1 
441 2893 2894 1 
442 3655 3656 1 
443 3663 3664 1 
444 3661 3662 1 
445 3643 3644 1 
446 4153 4154 1 
447 4163 4164 1 
448 4671 4672 1 
449 4653 4654 1 
450 4651 4652 1 
451 4921 4922 1 
452 4901 4902 1 
453 5151 5152 1 
454 4643 4644 1 
455 5401 5402 1 
456 5383 5384 1 
457 5421 5422 1 
458 6163 6164 1 
459 5411 5412 1 
460 5903 5904 1 
461 5915 5916 1 
462 5911 5912 1 
463 661 662 1 
464 891 892 1 
465 663 664 1 
466 893 894 1 
467 913 914 1 
468 1163 1164 1 
469 1153 1154 1 
470 1165 1166 1 
471 1671 1672 1 
472 1413 1414 1 
473 1901 1902 1 
474 1685 1686 1 
475 1911 1912 1 
476 1921 1922 1 
477 2661 2662 1 
478 2417 2418 1 
479 3173 3174 1 
480 3425 3426 1 
481 3671 3672 1 
482 3171 3172 1 
483 3427 3428 1 
484 4423 4424 1 
485 3921 3922 1 
486 4403 4404 1 
487 4171 4172 1 
488 4923 4924 1 
489 4411 4412 1 
490 4915 4916 1 
491 4911 4912 1 
492 5641 5642 1 
493 5687 5688 1 
494 5671 5672 1 
495 415 416 1 
496 161 162 1 
497 921 922 1 
498 671 672 1 
499 1171 1172 1 
500 1675 1676 1 
501 1173 1174 1 
502 931 932 1 
503 2665 2666 1 
504 2441 2442 1 
505 2433 2434 1 
506 2411 2412 1 
507 2933 2934 1 
508 2915 2916 1 
509 2923 2924 1 
510 3191 3192 1 
511 2907 2908 1 
512 3391 3392 1 
513 3421 3422 1 
514 3165 3166 1 
515 3683 3684 1 
516 3691 3692 1 
517 3933 3934 1 
518 3941 3942 1 
519 4173 4174 1 
520 4665 4666 1 
521 4181 4182 1 
522 4433 4434 1 
523 5443 5444 1 
524 5161 5162 1 
525 5431 5432 1 
526 5173 5174 1 
527 5681 5682 1 
528 5661 5662 1 
529 5921 5922 1 
530 5663 5664 1 
531 5675 5676 1 
532 5935 5936 1 
533 5923 5924 1 
534 5703 5704 1 
535 6183 6184 1 
536 6173 6174 1 
537 171 172 1 
538 193 194 1 
539 423 424 1 
540 1191 1192 1 
541 683 684 1 
542 933 934 1 
543 1193 1194 1 
544 945 946 1 
545 1185 1186 1 
546 1421 1422 1 
547 1431 1432 1 
548 1941 1942 1 
549 1681 1682 1 
550 1441 1442 1 
551 1705 1706 1 
552 2171 2172 1 
553 2181 2182 1 
554 2193 2194 1 
555 1943 1944 1 
556 2681 2682 1 
557 2691 2692 1 
558 2431 2432 1 
559 2693 2694 1 
560 2953 2954 1 
561 3201 3202 1 
562 3441 3442 1 
563 3195 3196 1 
564 3903 3904 1 
565 3931 3932 1 
566 4193 4194 1 
567 4943 4944 1 
568 4431 4432 1 
569 4691 4692 1 
570 5441 5442 1 
571 5933 5934 1 
572 6191 6192 1 
573 6203 6204 1 
574 441 442 1 
575 6201 6202 1 
576 181 182 1 
577 935 936 1 
578 711 712 1 
579 941 942 1 
580 1201 1202 1 
581 1451 1452 1 
582 1453 1454 1 
583 1433 1434 1 
584 1473 1474 1 
585 701 702 1 
586 1717 1718 1 
587 2201 2202 1 
588 1965 1966 1 
589 2221 2222 1 
590 2451 2452 1 
591 2209 2210 1 
592 2697 2698 1 
593 2701 2702 1 
594 2947 2948 1 
595 2943 2944 1 
596 3451 3452 1 
597 3193 3194 1 
598 3693 3694 1 
599 4191 4192 1 
600 4197 4198 1 
601 4443 4444 1 
602 4451 4452 1 
603 4925 4926 1 
604 4461 4462 1 
605 5201 5202 1 
606 5213 5214 1 
607 5711 5712 1 
608 5691 5692 1 
609 5463 5464 1 
610 6193 6194 1 
611 5951 5952 1 
612 5701 5702 1 
613 201 202 1 
614 205 206 1 
615 461 462 1 
616 457 458 1 
617 723 724 1 
618 731 732 1 
619 969 970 1 
620 1487 1488 1 
621 1711 1712 1 
622 1463 1464 1 
623 2453 2454 1 
624 2465 2466 1 
625 1955 1956 1 
626 2723 2724 1 
627 2951 2952 1 
628 3213 3214 1 
629 2971 2972 1 
630 3701 3702 1 
631 3703 3704 1 
632 3475 3476 1 
633 3721 3722 1 
634 4711 4712 1 
635 5451 5452 1 
636 5713 5714 1 
637 5945 5946 1 
638 213 214 1 
639 953 954 1 
640 725 726 1 
641 961 962 1 
642 1475 1476 1 
643 1713 1714 1 
644 1211 1212 1 
645 1973 1974 1 
646 1231 1232 1 
647 2471 2472 1 
648 2227 2228 1 
649 3211 3212 1 
650 2961 2962 1 
651 2713 2714 1 
652 3473 3474 1 
653 3233 3234 1 
654 4221 4222 1 
655 3961 3962 1 
656 4211 4212 1 
657 4473 4474 1 
658 4481 4482 1 
659 4981 4982 1 
660 4725 4726 1 
661 4987 4988 1 
662 4955 4956 1 
663 5717 5718 1 
664 5221 5222 1 
665 5725 5726 1 
666 5733 5734 1 
667 5735 5736 1 
668 6233 6234 1 
669 6243 6244 1 
670 6217 6218 1 
671 6245 6246 1 
672 981 982 1 
673 733 734 1 
674 991 992 1 
675 1471 1472 1 
676 1229 1230 1 
677 1253 1254 1 
678 1979 1980 1 
679 1993 1994 1 
680 2233 2234 1 
681 1983 1984 1 
682 1721 1722 1 
683 1991 1992 1 
684 2721 2722 1 
685 2493 2494 1 
686 3493 3494 1 
687 2991 2992 1 
688 3223 3224 1 
689 3471 3472 1 
690 3741 3742 1 
691 3491 3492 1 
692 3991 3992 1 
693 3971 3972 1 
694 4243 4244 1 
695 4721 4722 1 
696 5227 5228 1 
697 5231 5232 1 
698 5243 5244 1 
699 5731 5732 1 
700 5715 5716 1 
701 5985 5986 1 
702 5971 5972 1 
703 231 232 1 
704 6223 6224 1 
705 741 742 1 
706 1731 1732 1 
707 1491 1492 1 
708 1241 1242 1 
709 1481 1482 1 
710 1735 1736 1 
711 1503 1504 1 
712 1251 1252 1 
713 1493 1494 1 
714 2231 2232 1 
715 2261 2262 1 
716 1995 1996 1 
717 3733 3734 1 
718 3763 3764 1 
719 3251 3252 1 
720 3985 3986 1 
721 3755 3756 1 
722 4471 4472 1 
723 4241 4242 1 
724 4513 4514 1 
725 4743 4744 1 
726 4503 4504 1 
727 5253 5254 1 
728 5483 5484 1 
729 5981 5982 1 
730 4985 4986 1 
731 5983 5984 1 
732 6003 6004 1 
733 5993 5994 1 
734 6231 6232 1 
735 5759 5760 1 
736 263 264 1 
737 267 268 1 
738 747 748 1 
739 253 254 1 
740 1001 1002 1 
741 517 518 1 
742 1011 1012 1 
743 755 756 1 
744 503 504 1 
745 777 778 1 
746 1261 1262 1 
747 761 762 1 
748 1015 1016 1 
749 1257 1258 1 
750 1243 1244 1 
751 1733 1734 1 
752 1021 1022 1 
753 1519 1520 1 
754 2265 2266 1 
755 1761 1762 1 
756 2259 2260 1 
757 2243 2244 1 
758 2509 2510 1 
759 2503 2504 1 
760 2253 2254 1 
761 2767 2768 1 
762 2749 2750 1 
763 2255 2256 1 
764 3029 3030 1 
765 3007 3008 1 
766 3001 3002 1 
767 3535 3536 1 
768 3497 3498 1 
769 3235 3236 1 
770 4013 4014 1 
771 3747 3748 1 
772 3999 4000 1 
773 4259 4260 1 
774 4517 4518 1 
775 4501 4502 1 
776 4757 4758 1 
777 4499 4500 1 
778 5241 5242 1 
779 4523 4524 1 
780 5003 5004 1 
781 4257 4258 1 
782 4993 4994 1 
783 5515 5516 1 
784 4767 4768 1 
785 5255 5256 1 
786 5745 5746 1 
787 5517 5518 1 
788 5779 5780 1 
789 5763 5764 1 
790 5997 5998 1 
791 5991 5992 1 
792 6007 6008 1 
793 527 528 1 
794 265 266 1 
795 6019 6020 1 
796 31 32 1 
797 259 260 1 
798 513 514 1 
799 525 526 1 
800 279 280 1 
801 1025 1026 1 
802 1269 1270 1 
803 767 768 1 
804 1003 1004 1 
805 1277 1278 1 
806 1767 1768 1 
807 1505 1506 1 
808 2005 2006 1 
809 2019 2020 1 
810 2245 2246 1 
811 1263 1264 1 
812 1289 1290 1 
813 1763 1764 1 
814 2257 2258 1 
815 2515 2516 1 
816 2513 2514 1 
817 2531 2532 1 
818 3265 3266 1 
819 2759 2760 1 
820 3011 3012 1 
821 3019 3020 1 
822 3021 3022 1 
823 3257 3258 1 
824 2507 2508 1 
825 3775 3776 1 
826 2775 2776 1 
827 4011 4012 1 
828 4017 4018 1 
829 3769 3770 1 
830 3515 3516 1 
831 3517 3518 1 
832 4281 4282 1 
833 4273 4274 1 
834 4023 4024 1 
835 4511 4512 1 
836 3767 3768 1 
837 4265 4266 1 
838 4261 4262 1 
839 4029 4030 1 
840 5013 5014 1 
841 4771 4772 1 
842 5027 5028 1 
843 5029 5030 1 
844 5031 5032 1 
845 5265 5266 1 
846 5521 5522 1 
847 5015 5016 1 
848 5303 5304 1 
849 5773 5774 1 
850 5761 5762 1 
851 5519 5520 1 
852 1 2 1 
853 6027 6028 1 
854 33 34 1 
855 283 284 1 
856 531 532 1 
857 523 524 1 
858 23 24 1 
859 287 288 1 
860 15 16 1 
861 275 276 1 
862 547 548 1 
863 779 780 1 
864 1029 1030 1 
865 1031 1032 1 
866 787 788 1 
867 1273 1274 1 
868 1299 1300 1 
869 781 782 1 
870 1041 1042 1 
871 1279 1280 1 
872 1525 1526 1 
873 1283 1284 1 
874 1785 1786 1 
875 2033 2034 1 
876 2289 2290 1 
877 2299 2300 1 
878 2533 2534 1 
879 3027 3028 1 
880 2537 2538 1 
881 2769 2770 1 
882 2527 2528 1 
883 2287 2288 1 
884 2771 2772 1 
885 2765 2766 1 
886 3285 3286 1 
887 2795 2796 1 
888 3525 3526 1 
889 3023 3024 1 
890 3283 3284 1 
891 3539 3540 1 
892 3035 3036 1 
893 3771 3772 1 
894 3521 3522 1 
895 3513 3514 1 
896 3527 3528 1 
897 3015 3016 1 
898 3795 3796 1 
899 3761 3762 1 
900 4283 4284 1 
901 4795 4796 1 
902 4295 4296 1 
903 3773 3774 1 
904 4271 4272 1 
905 4285 4286 1 
906 4801 4802 1 
907 4793 4794 1 
908 5289 5290 1 
909 5017 5018 1 
910 5537 5538 1 
911 5039 5040 1 
912 5531 5532 1 
913 5059 5060 1 
914 5523 5524 1 
915 5533 5534 1 
916 21 22 1 
917 5803 5804 1 
918 5525 5526 1 
919 6023 6024 1 
920 6035 6036 1 
921 6025 6026 1 
922 6021 6022 1 
923 43 44 1 
924 27 28 1 
925 1051 1052 1 
926 271 272 1 
927 291 292 1 
928 535 536 1 
929 281 282 1 
930 797 798 1 
931 785 786 1 
932 537 538 1 
933 801 802 1 
934 543 544 1 
935 791 792 1 
936 1057 1058 1 
937 1541 1542 1 
938 795 796 1 
939 1033 1034 1 
940 1305 1306 1 
941 1035 1036 1 
942 1319 1320 1 
943 1315 1316 1 
944 1553 1554 1 
945 2045 2046 1 
946 1787 1788 1 
947 1311 1312 1 
948 2293 2294 1 
949 2295 2296 1 
950 2059 2060 1 
951 1813 1814 1 
952 2559 2560 1 
953 2303 2304 1 
954 2525 2526 1 
955 3033 3034 1 
956 2047 2048 1 
957 2541 2542 1 
958 2543 2544 1 
959 2809 2810 1 
960 3025 3026 1 
961 3053 3054 1 
962 3263 3264 1 
963 3275 3276 1 
964 2799 2800 1 
965 3287 3288 1 
966 3551 3552 1 
967 4027 4028 1 
968 3309 3310 1 
969 3779 3780 1 
970 3299 3300 1 
971 3037 3038 1 
972 3805 3806 1 
973 3533 3534 1 
974 3295 3296 1 
975 3785 3786 1 
976 4037 4038 1 
977 4309 4310 1 
978 4275 4276 1 
979 4043 4044 1 
980 4535 4536 1 
981 4039 4040 1 
982 4291 4292 1 
983 4539 4540 1 
984 4773 4774 1 
985 4033 4034 1 
986 4553 4554 1 
987 4783 4784 1 
988 5541 5542 1 
989 4809 4810 1 
990 4781 4782 1 
991 5297 5298 1 
992 5285 5286 1 
993 4785 4786 1 
994 5033 5034 1 
995 5281 5282 1 
996 5551 5552 1 
997 5291 5292 1 
998 5785 5786 1 
999 5271 5272 1 
1000 5557 5558 1 
1001 5549 5550 1 
1002 5293 5294 1 
1003 5771 5772 1 
1004 5781 5782 1 
1005 5287 5288 1 
1006 5797 5798 1 
1007 6057 6058 1 
1008 39 40 1 
1009 6041 6042 1 
1010 553 554 1 
1011 53 54 1 
1012 295 296 1 
1013 551 552 1 
1014 555 556 1 
1015 45 46 1 
1016 557 558 1 
1017 569 570 1 
1018 549 550 1 
1019 327 328 1 
1020 293 294 1 
1021 559 560 1 
1022 1037 1038 1 
1023 573 574 1 
1024 793 794 1 
1025 811 812 1 
1026 789 790 1 
1027 1063 1064 1 
1028 1045 1046 1 
1029 1571 1572 1 
1030 1555 1556 1 
1031 2061 2062 1 
1032 1539 1540 1 
1033 1303 1304 1 
1034 1565 1566 1 
1035 1771 1772 1 
1036 1537 1538 1 
1037 2285 2286 1 
1038 2037 2038 1 
1039 2305 2306 1 
1040 2307 2308 1 
1041 2807 2808 1 
1042 1809 1810 1 
1043 2545 2546 1 
1044 2297 2298 1 
1045 1803 1804 1 
1046 2579 2580 1 
1047 2805 2806 1 
1048 2557 2558 1 
1049 2785 2786 1 
1050 3049 3050 1 
1051 3059 3060 1 
1052 3043 3044 1 
1053 3787 3788 1 
1054 3291 3292 1 
1055 3297 3298 1 
1056 3317 3318 1 
1057 3303 3304 1 
1058 3793 3794 1 
1059 3783 3784 1 
1060 3543 3544 1 
1061 3817 3818 1 
1062 4315 4316 1 
1063 4307 4308 1 
1064 4293 4294 1 
1065 4551 4552 1 
1066 4301 4302 1 
1067 4549 4550 1 
1068 4537 4538 1 
1069 5061 5062 1 
1070 4323 4324 1 
1071 4821 4822 1 
1072 5313 5314 1 
1073 5305 5306 1 
1074 5789 5790 1 
1075 69 70 1 
1076 55 56 1 
1077 6087 6088 1 
1078 61 62 1 
1079 6051 6052 1 
1080 63 64 1 
1081 75 76 1 
1082 315 316 1 
1083 799 800 1 
1084 805 806 1 
1085 299 300 1 
1086 563 564 1 
1087 1043 1044 1 
1088 1067 1068 1 
1089 1301 1302 1 
1090 1061 1062 1 
1091 1049 1050 1 
1092 2053 2054 1 
1093 1829 1830 1 
1094 2063 2064 1 
1095 1557 1558 1 
1096 1837 1838 1 
1097 2069 2070 1 
1098 2077 2078 1 
1099 2301 2302 1 
1100 2547 2548 1 
1101 2319 2320 1 
1102 2571 2572 1 
1103 2311 2312 1 
1104 2309 2310 1 
1105 2553 2554 1 
1106 3061 3062 1 
1107 3071 3072 1 
1108 3561 3562 1 
1109 3571 3572 1 
1110 2829 2830 1 
1111 3557 3558 1 
1112 3555 3556 1 
1113 3553 3554 1 
1114 3803 3804 1 
1115 3807 3808 1 
1116 3827 3828 1 
1117 3809 3810 1 
1118 4299 4300 1 
1119 4065 4066 1 
1120 4093 4094 1 
1121 4555 4556 1 
1122 4569 4570 1 
1123 4565 4566 1 
1124 4805 4806 1 
1125 4815 4816 1 
1126 4797 4798 1 
1127 5097 5098 1 
1128 5811 5812 1 
1129 5805 5806 1 
1130 5783 5784 1 
1131 5813 5814 1 
1132 5825 5826 1 
1133 6061 6062 1 
1134 303 304 1 
1135 59 60 1 
1136 579 580 1 
1137 65 66 1 
1138 6109 6110 1 
1139 321 322 1 
1140 821 822 1 
1141 95 96 1 
1142 829 830 1 
1143 1071 1072 1 
1144 1065 1066 1 
1145 819 820 1 
1146 1085 1086 1 
1147 1577 1578 1 
1148 1077 1078 1 
1149 1323 1324 1 
1150 1551 1552 1 
1151 1807 1808 1 
1152 2067 2068 1 
1153 1079 1080 1 
1154 2065 2066 1 
1155 1561 1562 1 
1156 1823 1824 1 
1157 2325 2326 1 
1158 2075 2076 1 
1159 2073 2074 1 
1160 2831 2832 1 
1161 2331 2332 1 
1162 3069 3070 1 
1163 2825 2826 1 
1164 3325 3326 1 
1165 3321 3322 1 
1166 3835 3836 1 
1167 3559 3560 1 
1168 3567 3568 1 
1169 3821 3822 1 
1170 4327 4328 1 
1171 4057 4058 1 
1172 4311 4312 1 
1173 4823 4824 1 
1174 4579 4580 1 
1175 4581 4582 1 
1176 5081 5082 1 
1177 4331 4332 1 
1178 5063 5064 1 
1179 4827 4828 1 
1180 5311 5312 1 
1181 5335 5336 1 
1182 5577 5578 1 
1183 5323 5324 1 
1184 5085 5086 1 
1185 5815 5816 1 
1186 73 74 1 
1187 6065 6066 1 
1188 323 324 1 
1189 6071 6072 1 
1190 335 336 1 
1191 93 94 1 
1192 337 338 1 
1193 585 586 1 
1194 79 80 1 
1195 593 594 1 
1196 815 816 1 
1197 607 608 1 
1198 817 818 1 
1199 85 86 1 
1200 813 814 1 
1201 843 844 1 
1202 343 344 1 
1203 1335 1336 1 
1204 1333 1334 1 
1205 1089 1090 1 
1206 1081 1082 1 
1207 1325 1326 1 
1208 1355 1356 1 
1209 1595 1596 1 
1210 1347 1348 1 
1211 1827 1828 1 
1212 1825 1826 1 
1213 2097 2098 1 
1214 2615 2616 1 
1215 2351 2352 1 
1216 2085 2086 1 
1217 2339 2340 1 
1218 2333 2334 1 
1219 2611 2612 1 
1220 2089 2090 1 
1221 2321 2322 1 
1222 3085 3086 1 
1223 2597 2598 1 
1224 2575 2576 1 
1225 3095 3096 1 
1226 2595 2596 1 
1227 3323 3324 1 
1228 2587 2588 1 
1229 2857 2858 1 
1230 3343 3344 1 
1231 3333 3334 1 
1232 3585 3586 1 
1233 3351 3352 1 
1234 3579 3580 1 
1235 3337 3338 1 
1236 3573 3574 1 
1237 4341 4342 1 
1238 3825 3826 1 
1239 4337 4338 1 
1240 4367 4368 1 
1241 4575 4576 1 
1242 4353 4354 1 
1243 4335 4336 1 
1244 4087 4088 1 
1245 4097 4098 1 
1246 4091 4092 1 
1247 4075 4076 1 
1248 4103 4104 1 
1249 4573 4574 1 
1250 4321 4322 1 
1251 4325 4326 1 
1252 4345 4346 1 
1253 4589 4590 1 
1254 4819 4820 1 
1255 4839 4840 1 
1256 4587 4588 1 
1257 4837 4838 1 
1258 4847 4848 1 
1259 4825 4826 1 
1260 5087 5088 1 
1261 5341 5342 1 
1262 5093 5094 1 
1263 5331 5332 1 
1264 5325 5326 1 
1265 5827 5828 1 
1266 5565 5566 1 
1267 5315 5316 1 
1268 6073 6074 1 
1269 89 90 1 
1270 5589 5590 1 
1271 5835 5836 1 
1272 6075 6076 1 
1273 5837 5838 1 
1274 83 84 1 
1275 6097 6098 1 
1276 595 596 1 
1277 331 332 1 
1278 597 598 1 
1279 601 602 1 
1280 1099 1100 1 
1281 599 600 1 
1282 1095 1096 1 
1283 1337 1338 1 
1284 841 842 1 
1285 857 858 1 
1286 1093 1094 1 
1287 1345 1346 1 
1288 1363 1364 1 
1289 1357 1358 1 
1290 1107 1108 1 
1291 1853 1854 1 
1292 1607 1608 1 
1293 2093 2094 1 
1294 1587 1588 1 
1295 1349 1350 1 
1296 1359 1360 1 
1297 2349 2350 1 
1298 2341 2342 1 
1299 1859 1860 1 
1300 1839 1840 1 
1301 2091 2092 1 
1302 2353 2354 1 
1303 2365 2366 1 
1304 2347 2348 1 
1305 2843 2844 1 
1306 2581 2582 1 
1307 2593 2594 1 
1308 2839 2840 1 
1309 2585 2586 1 
1310 3079 3080 1 
1311 3349 3350 1 
1312 2875 2876 1 
1313 3077 3078 1 
1314 3613 3614 1 
1315 3129 3130 1 
1316 3605 3606 1 
1317 3595 3596 1 
1318 3841 3842 1 
1319 3851 3852 1 
1320 4369 4370 1 
1321 4085 4086 1 
1322 4601 4602 1 
1323 4833 4834 1 
1324 4859 4860 1 
1325 4855 4856 1 
1326 4357 4358 1 
1327 4583 4584 1 
1328 4597 4598 1 
1329 4845 4846 1 
1330 5591 5592 1 
1331 5339 5340 1 
1332 5345 5346 1 
1333 5611 5612 1 
1334 5843 5844 1 
1335 5869 5870 1 
1336 6105 6106 1 
1337 5821 5822 1 
1338 5831 5832 1 
1339 5613 5614 1 
1340 5617 5618 1 
1341 6093 6094 1 
1342 97 98 1 
1343 5849 5850 1 
1344 605 606 1 
1345 615 616 1 
1346 6103 6104 1 
1347 375 376 1 
1348 105 106 1 
1349 91 92 1 
1350 871 872 1 
1351 369 370 1 
1352 363 364 1 
1353 865 866 1 
1354 111 112 1 
1355 853 854 1 
1356 353 354 1 
1357 863 864 1 
1358 879 880 1 
1359 845 846 1 
1360 861 862 1 
1361 1855 1856 1 
1362 1613 1614 1 
1363 2111 2112 1 
1364 1605 1606 1 
1365 1867 1868 1 
1366 2621 2622 1 
1367 1845 1846 1 
1368 2367 2368 1 
1369 2885 2886 1 
1370 2619 2620 1 
1371 3105 3106 1 
1372 2863 2864 1 
1373 2873 2874 1 
1374 3379 3380 1 
1375 3093 3094 1 
1376 3107 3108 1 
1377 3345 3346 1 
1378 3601 3602 1 
1379 3603 3604 1 
1380 3889 3890 1 
1381 4127 4128 1 
1382 4373 4374 1 
1383 3855 3856 1 
1384 4605 4606 1 
1385 4351 4352 1 
1386 4843 4844 1 
1387 5103 5104 1 
1388 5361 5362 1 
1389 4863 4864 1 
1390 5119 5120 1 
1391 5099 5100 1 
1392 5355 5356 1 
1393 5377 5378 1 
1394 5111 5112 1 
1395 5091 5092 1 
1396 5353 5354 1 
1397 5851 5852 1 
1398 5859 5860 1 
1399 5359 5360 1 
1400 5605 5606 1 
1401 5855 5856 1 
1402 5623 5624 1 
1403 5863 5864 1 
1404 5583 5584 1 
1405 6119 6120 1 
1406 125 126 1 
1407 6135 6136 1 
1408 6127 6128 1 
1409 139 140 1 
1410 5861 5862 1 
1411 365 366 1 
1412 611 612 1 
1413 851 852 1 
1414 371 372 1 
1415 379 380 1 
1416 115 116 1 
1417 621 622 1 
1418 623 624 1 
1419 1127 1128 1 
1420 1121 1122 1 
1421 603 604 1 
1422 1145 1146 1 
1423 1119 1120 1 
1424 1113 1114 1 
1425 1125 1126 1 
1426 1375 1376 1 
1427 1117 1118 1 
1428 1873 1874 1 
1429 1603 1604 1 
1430 1139 1140 1 
1431 1385 1386 1 
1432 1377 1378 1 
1433 2135 2136 1 
1434 2109 2110 1 
1435 2125 2126 1 
1436 3113 3114 1 
1437 2363 2364 1 
1438 2387 2388 1 
1439 2361 2362 1 
1440 2627 2628 1 
1441 2877 2878 1 
1442 3353 3354 1 
1443 3369 3370 1 
1444 3373 3374 1 
1445 3363 3364 1 
1446 3119 3120 1 
1447 3867 3868 1 
1448 3355 3356 1 
1449 4123 4124 1 
1450 4121 4122 1 
1451 3623 3624 1 
1452 4125 4126 1 
1453 3875 3876 1 
1454 4115 4116 1 
1455 3887 3888 1 
1456 4111 4112 1 
1457 4861 4862 1 
1458 4609 4610 1 
1459 4377 4378 1 
1460 5127 5128 1 
1461 4371 4372 1 
1462 5113 5114 1 
1463 4899 4900 1 
1464 5135 5136 1 
1465 5627 5628 1 
1466 5375 5376 1 
1467 5619 5620 1 
1468 5607 5608 1 
1469 6139 6140 1 
1470 119 120 1 
1471 101 102 1 
1472 5883 5884 1 
1473 5875 5876 1 
1474 6131 6132 1 
1475 397 398 1 
1476 6117 6118 1 
1477 377 378 1 
1478 881 882 1 
1479 393 394 1 
1480 1115 1116 1 
1481 1365 1366 1 
1482 885 886 1 
1483 1381 1382 1 
1484 1143 1144 1 
1485 1133 1134 1 
1486 1149 1150 1 
1487 1379 1380 1 
1488 1871 1872 1 
1489 1879 1880 1 
1490 1623 1624 1 
1491 1897 1898 1 
1492 1895 1896 1 
1493 2137 2138 1 
1494 2123 2124 1 
1495 2379 2380 1 
1496 2141 2142 1 
1497 2131 2132 1 
1498 2883 2884 1 
1499 2635 2636 1 
1500 2371 2372 1 
1501 2385 2386 1 
1502 3131 3132 1 
1503 3139 3140 1 
1504 3385 3386 1 
1505 3383 3384 1 
1506 3133 3134 1 
1507 3641 3642 1 
1508 3885 3886 1 
1509 3149 3150 1 
1510 3871 3872 1 
1511 4617 4618 1 
1512 3877 3878 1 
1513 3879 3880 1 
1514 4871 4872 1 
1515 4361 4362 1 
1516 4883 4884 1 
1517 4135 4136 1 
1518 4655 4656 1 
1519 4865 4866 1 
1520 5125 5126 1 
1521 5397 5398 1 
1522 4877 4878 1 
1523 5133 5134 1 
1524 5885 5886 1 
1525 5621 5622 1 
1526 5891 5892 1 
1527 5123 5124 1 
1528 5631 5632 1 
1529 5871 5872 1 
1530 5389 5390 1 
1531 5877 5878 1 
1532 6125 6126 1 
1533 5635 5636 1 
1534 131 132 1 
1535 6123 6124 1 
1536 143 144 1 
1537 637 638 1 
1538 649 650 1 
1539 903 904 1 
1540 419 420 1 
1541 135 136 1 
1542 659 660 1 
1543 385 386 1 
1544 887 888 1 
1545 657 658 1 
1546 1401 1402 1 
1547 1147 1148 1 
1548 899 900 1 
1549 1391 1392 1 
1550 1611 1612 1 
1551 1659 1660 1 
1552 1905 1906 1 
1553 1891 1892 1 
1554 2151 2152 1 
1555 2167 2168 1 
1556 2143 2144 1 
1557 2403 2404 1 
1558 2393 2394 1 
1559 2881 2882 1 
1560 3145 3146 1 
1561 2899 2900 1 
1562 3631 3632 1 
1563 3627 3628 1 
1564 3141 3142 1 
1565 3635 3636 1 
1566 3645 3646 1 
1567 3401 3402 1 
1568 3387 3388 1 
1569 4131 4132 1 
1570 4129 4130 1 
1571 3653 3654 1 
1572 4399 4400 1 
1573 4143 4144 1 
1574 4393 4394 1 
1575 4625 4626 1 
1576 5149 5150 1 
1577 4905 4906 1 
1578 4893 4894 1 
1579 5155 5156 1 
1580 5141 5142 1 
1581 5371 5372 1 
1582 5395 5396 1 
1583 5405 5406 1 
1584 4907 4908 1 
1585 5407 5408 1 
1586 145 146 1 
1587 5657 5658 1 
1588 5895 5896 1 
1589 6133 6134 1 
1590 6153 6154 1 
1591 5649 5650 1 
1592 5653 5654 1 
1593 413 414 1 
1594 157 158 1 
1595 411 412 1 
1596 403 404 1 
1597 399 400 1 
1598 405 406 1 
1599 1141 1142 1 
1600 917 918 1 
1601 1397 1398 1 
1602 1161 1162 1 
1603 1399 1400 1 
1604 915 916 1 
1605 1913 1914 1 
1606 1653 1654 1 
1607 1657 1658 1 
1608 2409 2410 1 
1609 1405 1406 1 
1610 1661 1662 1 
1611 1899 1900 1 
1612 2405 2406 1 
1613 2157 2158 1 
1614 1909 1910 1 
1615 2397 2398 1 
1616 2903 2904 1 
1617 2667 2668 1 
1618 2407 2408 1 
1619 2659 2660 1 
1620 2649 2650 1 
1621 2653 2654 1 
1622 2421 2422 1 
1623 2401 2402 1 
1624 3155 3156 1 
1625 3151 3152 1 
1626 3153 3154 1 
1627 3907 3908 1 
1628 3411 3412 1 
1629 4145 4146 1 
1630 3637 3638 1 
1631 3649 3650 1 
1632 3657 3658 1 
1633 4405 4406 1 
1634 4401 4402 1 
1635 4157 4158 1 
1636 3919 3920 1 
1637 4669 4670 1 
1638 5153 5154 1 
1639 4667 4668 1 
1640 4897 4898 1 
1641 5415 5416 1 
1642 5143 5144 1 
1643 5163 5164 1 
1644 5409 5410 1 
1645 6141 6142 1 
1646 5929 5930 1 
1647 5643 5644 1 
1648 6159 6160 1 
1649 6157 6158 1 
1650 165 166 1 
1651 167 168 1 
1652 429 430 1 
1653 923 924 1 
1654 409 410 1 
1655 677 678 1 
1656 665 666 1 
1657 655 656 1 
1658 927 928 1 
1659 949 950 1 
1660 929 930 1 
1661 1429 1430 1 
1662 1417 1418 1 
1663 1927 1928 1 
1664 1667 1668 1 
1665 1919 1920 1 
1666 1651 1652 1 
1667 1923 1924 1 
1668 1935 1936 1 
1669 1915 1916 1 
1670 1907 1908 1 
1671 2427 2428 1 
1672 2177 2178 1 
1673 3161 3162 1 
1674 2897 2898 1 
1675 3167 3168 1 
1676 3159 3160 1 
1677 2651 2652 1 
1678 2905 2906 1 
1679 3403 3404 1 
1680 3419 3420 1 
1681 3143 3144 1 
1682 3431 3432 1 
1683 3667 3668 1 
1684 3677 3678 1 
1685 3413 3414 1 
1686 3911 3912 1 
1687 3925 3926 1 
1688 3917 3918 1 
1689 4413 4414 1 
1690 4151 4152 1 
1691 5171 5172 1 
1692 4659 4660 1 
1693 4927 4928 1 
1694 4661 4662 1 
1695 5679 5680 1 
1696 5905 5906 1 
1697 5177 5178 1 
1698 5419 5420 1 
1699 5667 5668 1 
1700 5651 5652 1 
1701 5907 5908 1 
1702 6165 6166 1 
1703 6167 6168 1 
1704 5917 5918 1 
1705 5913 5914 1 
1706 5927 5928 1 
1707 6161 6162 1 
1708 197 198 1 
1709 421 422 1 
1710 153 154 1 
1711 435 436 1 
1712 175 176 1 
1713 173 174 1 
1714 691 692 1 
1715 1157 1158 1 
1716 425 426 1 
1717 1155 1156 1 
1718 1673 1674 1 
1719 1407 1408 1 
1720 1683 1684 1 
1721 1437 1438 1 
1722 1439 1440 1 
1723 1663 1664 1 
1724 1677 1678 1 
1725 1925 1926 1 
1726 2179 2180 1 
1727 2187 2188 1 
1728 2415 2416 1 
1729 2425 2426 1 
1730 2429 2430 1 
1731 2423 2424 1 
1732 2671 2672 1 
1733 2929 2930 1 
1734 3181 3182 1 
1735 3437 3438 1 
1736 3443 3444 1 
1737 3433 3434 1 
1738 3415 3416 1 
1739 3207 3208 1 
1740 3429 3430 1 
1741 3405 3406 1 
1742 3673 3674 1 
1743 3935 3936 1 
1744 4421 4422 1 
1745 4161 4162 1 
1746 4177 4178 1 
1747 4189 4190 1 
1748 4175 4176 1 
1749 4673 4674 1 