ITEM: TIMESTEP
109120
ITEM: NUMBER OF ENTRIES
8365
ITEM: BOX BOUNDS pp pp ff
0.0000000000000000e+00 7.2168784000000002e+01
0.0000000000000000e+00 7.2168784000000002e+01
0.0000000000000000e+00 1.2000000000000000e+01
ITEM: ENTRIES index c_1[1] c_1[2] c_1[3]
1 268 748 3 
2 268 267 1 
3 268 494 3 
4 746 268 3 
5 746 745 1 
6 494 748 3 
7 494 493 1 
8 494 746 3 
9 5502 5996 3 
10 6022 5526 3 
11 6022 6021 1 
12 495 1001 2 
13 748 746 3 
14 748 747 1 
15 267 499 2 
16 1222 6020 3 
17 6020 6019 1 
18 1767 2033 2 
19 1767 1768 1 
20 2057 2757 2 
21 2975 2976 1 
22 2975 3001 2 
23 2249 2263 2 
24 2996 2288 3 
25 2996 2995 1 
26 3540 3539 1 
27 3790 3540 3 
28 2482 2740 3 
29 2482 2481 1 
30 2482 2778 3 
31 2504 2482 3 
32 2504 2503 1 
33 2788 3256 3 
34 2788 2787 1 
35 2532 2058 3 
36 2532 2531 1 
37 2532 2996 3 
38 2058 2288 3 
39 2058 2057 1 
40 2058 2996 3 
41 3789 3790 1 
42 3021 3789 2 
43 3290 3478 3 
44 3290 3289 1 
45 3478 3228 3 
46 3478 3477 1 
47 3289 3747 2 
48 2772 3012 3 
49 2772 2771 1 
50 2772 3514 3 
51 3228 3290 3 
52 3228 3227 1 
53 3022 2772 3 
54 3022 3021 1 
55 3040 3039 1 
56 3030 3040 3 
57 4032 5046 3 
58 4032 4031 1 
59 5046 3796 3 
60 5046 5045 1 
61 3029 3030 1 
62 3029 3749 2 
63 4498 4212 3 
64 4498 4497 1 
65 3796 4032 3 
66 3796 3795 1 
67 3726 3725 1 
68 3726 4240 3 
69 4240 4510 3 
70 4510 4509 1 
71 4510 3726 3 
72 3750 3282 3 
73 3750 3749 1 
74 3778 5242 3 
75 3778 3777 1 
76 5254 3778 3 
77 5254 5253 1 
78 3763 4211 2 
79 5242 5254 3 
80 5242 5241 1 
81 3764 3763 1 
82 4237 4229 2 
83 3957 4227 2 
84 4006 3764 3 
85 4277 4278 1 
86 4277 5013 2 
87 4466 4742 3 
88 4466 4465 1 
89 4742 4230 3 
90 4742 4741 1 
91 4230 4466 3 
92 4230 4229 1 
93 4230 4238 3 
94 4779 4983 2 
95 5461 5462 1 
96 4983 4984 1 
97 5743 6219 2 
98 5744 5002 3 
99 5744 5743 1 
100 5778 5744 3 
101 5778 5777 1 
102 5762 5744 3 
103 5762 5761 1 
104 5762 5778 3 
105 6021 6023 2 
106 260 6022 3 
107 260 259 1 
108 260 5766 3 
109 260 5526 3 
110 5766 6022 3 
111 5766 5765 1 
112 5526 5766 3 
113 5526 5525 1 
114 795 5525 2 
115 279 779 2 
116 2281 2537 2 
117 2517 2518 1 
118 2517 2253 2 
119 2272 2030 3 
120 3025 3026 1 
121 3025 2539 2 
122 2021 2741 2 
123 2531 2541 2 
124 2741 2742 1 
125 2485 2486 1 
126 2485 2995 2 
127 2542 2541 1 
128 3272 2764 3 
129 3272 3271 1 
130 2710 3238 3 
131 2710 2709 1 
132 2710 3498 3 
133 2779 3039 2 
134 3035 3279 2 
135 3227 3259 2 
136 4035 4533 2 
137 4553 5045 2 
138 4036 5014 3 
139 4036 4035 1 
140 5014 5050 3 
141 5014 5013 1 
142 5050 4036 3 
143 5050 5049 1 
144 4019 5017 2 
145 4465 5241 2 
146 5002 5762 3 
147 5002 5001 1 
148 5002 5778 3 
149 5001 5537 2 
150 5523 5765 2 
151 6008 5280 3 
152 6008 6007 1 
153 5280 6002 3 
154 5280 5279 1 
155 6002 6008 3 
156 6002 6001 1 
157 496 6008 3 
158 496 495 1 
159 496 5280 3 
160 496 6002 3 
161 5524 5523 1 
162 6074 6062 3 
163 6062 6061 1 
164 749 6067 2 
165 271 1299 2 
166 2525 3009 2 
167 1739 1769 2 
168 2278 2542 3 
169 2277 2278 1 
170 2277 2309 2 
171 4534 4542 3 
172 4533 4534 1 
173 3585 4037 2 
174 4030 3046 3 
175 3046 3045 1 
176 4554 3800 3 
177 4554 4553 1 
178 4554 5018 3 
179 4292 4554 3 
180 4292 4291 1 
181 5286 5285 1 
182 4772 5286 3 
183 5052 5528 3 
184 5052 5051 1 
185 5528 5296 3 
186 5528 5527 1 
187 5296 5052 3 
188 5296 5295 1 
189 549 5051 2 
190 11 12 1 
191 11 6017 2 
192 12 5524 3 
193 1052 16 3 
194 1052 1051 1 
195 15 6049 2 
196 53 559 2 
197 43 44 1 
198 43 61 2 
199 29 6061 2 
200 275 551 2 
201 9 10 1 
202 9 569 2 
203 294 830 3 
204 294 293 1 
205 294 300 3 
206 835 1281 2 
207 1033 1047 2 
208 2528 2052 3 
209 2528 2527 1 
210 2528 2774 3 
211 1545 2069 2 
212 2829 3787 2 
213 3277 3278 1 
214 3277 3515 2 
215 3082 3586 3 
216 3586 3585 1 
217 4011 4029 2 
218 4029 4030 1 
219 5056 5810 3 
220 5056 5055 1 
221 5076 5056 3 
222 5076 5075 1 
223 5810 5076 3 
224 5810 5809 1 
225 5298 5544 3 
226 5298 5562 3 
227 4788 4792 3 
228 4788 4787 1 
229 4788 4822 3 
230 4822 4540 3 
231 4822 4821 1 
232 5562 6058 3 
233 4540 4792 3 
234 4540 4539 1 
235 4540 4788 3 
236 5792 5022 3 
237 5792 5791 1 
238 16 570 3 
239 16 15 1 
240 16 62 3 
241 62 1052 3 
242 62 61 1 
243 62 570 3 
244 71 72 1 
245 71 555 2 
246 570 1052 3 
247 570 569 1 
248 2782 2781 1 
249 560 559 1 
250 568 560 3 
251 72 552 3 
252 72 572 3 
253 299 567 2 
254 309 5553 2 
255 5553 5554 1 
256 567 568 1 
257 295 553 2 
258 300 330 3 
259 300 299 1 
260 300 830 3 
261 1572 1282 3 
262 1572 1571 1 
263 1282 1274 3 
264 1282 1281 1 
265 1274 1572 3 
266 1274 1273 1 
267 830 330 3 
268 830 829 1 
269 330 294 3 
270 330 329 1 
271 329 6069 2 
272 1034 1540 3 
273 1034 1033 1 
274 1034 1556 3 
275 1786 1034 3 
276 1786 1785 1 
277 1540 1786 3 
278 1540 1539 1 
279 1540 1556 3 
280 1539 2023 2 
281 2052 2774 3 
282 2052 2051 1 
283 1816 1544 3 
284 1816 1815 1 
285 1546 2052 3 
286 1546 1545 1 
287 1546 2528 3 
288 2774 1546 3 
289 2774 2773 1 
290 2805 3283 2 
291 3283 3284 1 
292 2522 2316 3 
293 2522 2521 1 
294 2522 3284 3 
295 3267 3268 1 
296 2806 2522 3 
297 2806 2805 1 
298 2316 2806 3 
299 2316 2315 1 
300 2316 3284 3 
301 3081 3082 1 
302 3081 4289 2 
303 5532 4052 3 
304 4052 4051 1 
305 5053 5054 1 
306 5053 5075 2 
307 4489 5029 2 
308 5048 5334 3 
309 5048 5578 3 
310 4335 4805 2 
311 4336 4335 1 
312 4336 5054 3 
313 3563 3564 1 
314 3563 5809 2 
315 5059 5060 1 
316 4782 4318 3 
317 4782 4781 1 
318 4812 4782 3 
319 4812 4811 1 
320 4318 4812 3 
321 4318 4317 1 
322 4033 4787 2 
323 5812 5806 3 
324 5806 5805 1 
325 524 5786 3 
326 5820 5818 3 
327 5818 5817 1 
328 523 6029 2 
329 523 524 1 
330 775 776 1 
331 775 6077 2 
332 558 6056 3 
333 558 557 1 
334 58 558 3 
335 58 57 1 
336 6056 58 3 
337 6056 6055 1 
338 5554 5580 3 
339 5580 5579 1 
340 554 553 1 
341 776 554 3 
342 533 783 2 
343 534 288 3 
344 534 533 1 
345 1794 534 3 
346 1794 1793 1 
347 837 1065 2 
348 1553 1793 2 
349 1543 1771 2 
350 1835 1836 1 
351 1544 1050 3 
352 1544 1543 1 
353 1544 2296 3 
354 1830 2286 3 
355 2286 2285 1 
356 2295 2301 2 
357 2553 2569 2 
358 1521 2337 2 
359 2570 2569 1 
360 1804 2570 3 
361 2820 1538 3 
362 2820 2819 1 
363 1538 2292 3 
364 1538 1537 1 
365 2292 2820 3 
366 2292 2291 1 
367 3575 3576 1 
368 3553 3575 2 
369 3567 4053 2 
370 3091 3831 2 
371 4322 4328 3 
372 4328 4327 1 
373 4051 4549 2 
374 5309 5310 1 
375 4306 5048 3 
376 4306 5578 3 
377 4549 4550 1 
378 5310 5578 3 
379 4324 5334 3 
380 4324 4323 1 
381 4324 5060 3 
382 5578 5577 1 
383 4550 4336 3 
384 4550 5054 3 
385 4550 5060 3 
386 5334 4034 3 
387 5334 5333 1 
388 4034 4324 3 
389 4034 4033 1 
390 4034 4306 3 
391 5060 5310 3 
392 3564 5054 3 
393 3564 4336 3 
394 3564 4782 3 
395 6055 6087 2 
396 6093 6094 1 
397 5565 5579 2 
398 1090 1089 1 
399 1044 1090 3 
400 817 818 1 
401 333 817 2 
402 838 1070 3 
403 838 837 1 
404 1070 842 3 
405 1070 1069 1 
406 842 838 3 
407 842 841 1 
408 1069 1835 2 
409 1301 1533 2 
410 1323 2113 2 
411 2824 2330 3 
412 2824 2823 1 
413 2330 1808 3 
414 2330 2329 1 
415 2568 2330 3 
416 2568 2567 1 
417 2568 2824 3 
418 1808 2824 3 
419 1808 1807 1 
420 1808 2568 3 
421 2817 2818 1 
422 2291 2329 2 
423 1803 2545 2 
424 1803 1804 1 
425 2546 3074 3 
426 2546 2545 1 
427 2546 3332 3 
428 2546 3614 3 
429 1537 2841 2 
430 3074 3614 3 
431 3074 3073 1 
432 3332 3074 3 
433 3332 3331 1 
434 3614 3332 3 
435 3614 3613 1 
436 2322 3836 3 
437 2322 2321 1 
438 2322 3562 3 
439 2322 3812 3 
440 3812 3836 3 
441 3812 3811 1 
442 3836 3562 3 
443 3836 3835 1 
444 3562 3812 3 
445 3562 3561 1 
446 3554 3568 3 
447 3554 3553 1 
448 3568 3092 3 
449 3568 3567 1 
450 3568 3832 3 
451 3832 3554 3 
452 3832 3831 1 
453 3092 3554 3 
454 3092 3091 1 
455 3092 3832 3 
456 4045 4321 2 
457 4321 4322 1 
458 4867 5093 2 
459 573 6033 2 
460 6033 6034 1 
461 5597 5598 1 
462 5597 6093 2 
463 565 5815 2 
464 313 6099 2 
465 1307 1308 1 
466 577 578 1 
467 577 1307 2 
468 5836 5566 3 
469 5566 5565 1 
470 96 578 3 
471 96 110 3 
472 96 334 3 
473 353 597 2 
474 816 815 1 
475 841 1849 2 
476 862 816 3 
477 1077 1078 1 
478 1077 2037 2 
479 2818 2590 3 
480 2590 2589 1 
481 1579 1841 2 
482 2567 2827 2 
483 2583 2603 2 
484 2828 2612 3 
485 2828 2827 1 
486 2612 2850 3 
487 2612 2611 1 
488 2850 2828 3 
489 2850 2849 1 
490 2548 2850 3 
491 2548 2547 1 
492 2548 2828 3 
493 2548 2612 3 
494 3613 3331 2 
495 2611 3837 2 
496 4578 3804 3 
497 3804 3803 1 
498 3863 3865 2 
499 3337 3811 2 
500 3852 4096 3 
501 3583 3803 2 
502 4096 4095 1 
503 3338 3588 3 
504 3338 3337 1 
505 4369 4599 2 
506 4868 4856 3 
507 4868 4867 1 
508 4868 5362 3 
509 4868 5118 3 
510 5362 5118 3 
511 5362 5361 1 
512 4856 5362 3 
513 4856 4855 1 
514 5118 4856 3 
515 5118 5117 1 
516 5094 5093 1 
517 5138 5094 3 
518 5826 5292 3 
519 5826 5825 1 
520 5634 5826 3 
521 5634 5633 1 
522 5601 5633 2 
523 6106 82 3 
524 82 81 1 
525 6034 800 3 
526 5366 5866 3 
527 5366 5365 1 
528 566 584 3 
529 566 565 1 
530 76 566 3 
531 76 75 1 
532 76 6072 3 
533 6072 566 3 
534 6072 6071 1 
535 75 6105 2 
536 584 76 3 
537 584 583 1 
538 584 6072 3 
539 5835 5836 1 
540 5831 5835 2 
541 590 1084 3 
542 590 589 1 
543 343 857 2 
544 1378 1620 3 
545 1378 1377 1 
546 1854 1378 3 
547 1854 1853 1 
548 1620 1854 3 
549 1620 1619 1 
550 1351 1583 2 
551 344 348 3 
552 344 343 1 
553 344 1116 3 
554 1660 1346 3 
555 1660 1659 1 
556 1116 348 3 
557 1116 1115 1 
558 844 344 3 
559 844 843 1 
560 844 1116 3 
561 1855 2079 2 
562 1328 846 3 
563 1842 2368 3 
564 1842 1841 1 
565 2390 1842 3 
566 2390 2389 1 
567 2112 1842 3 
568 2112 2111 1 
569 2112 2390 3 
570 2112 2368 3 
571 1843 1844 1 
572 1843 2335 2 
573 2599 2600 1 
574 3326 3352 3 
575 3326 3325 1 
576 3348 3326 3 
577 3348 3347 1 
578 3352 3348 3 
579 3352 3351 1 
580 2848 3326 3 
581 2848 2847 1 
582 2848 3348 3 
583 2848 3352 3 
584 3087 3343 2 
585 3088 4348 3 
586 3088 3087 1 
587 4348 4076 3 
588 4348 4347 1 
589 4076 3088 3 
590 4076 4075 1 
591 3587 4347 2 
592 4127 4365 2 
593 5117 5131 2 
594 4085 4601 2 
595 5292 5634 3 
596 5292 5291 1 
597 5137 5138 1 
598 5137 5377 2 
599 5377 5378 1 
600 4848 5344 3 
601 5344 5343 1 
602 4875 4876 1 
603 4597 4875 2 
604 4847 4848 1 
605 5855 5856 1 
606 5365 5855 2 
607 6105 6106 1 
608 6139 6140 1 
609 613 6139 2 
610 922 921 1 
611 6104 5606 3 
612 6104 6103 1 
613 1166 922 3 
614 1352 1112 3 
615 1352 1351 1 
616 659 660 1 
617 659 1343 2 
618 615 621 2 
619 622 1342 3 
620 622 621 1 
621 1136 2376 3 
622 1136 1135 1 
623 1136 2110 3 
624 1136 1860 3 
625 1106 1660 3 
626 1106 1105 1 
627 1346 1106 3 
628 1346 1345 1 
629 843 1595 2 
630 562 1140 3 
631 562 561 1 
632 562 1342 3 
633 562 622 3 
634 2110 2376 3 
635 2110 2109 1 
636 2406 2364 3 
637 2364 2363 1 
638 2368 2390 3 
639 2368 2367 1 
640 2588 2100 3 
641 2588 2587 1 
642 2588 2622 3 
643 2100 3380 3 
644 2100 2099 1 
645 2100 2622 3 
646 3084 3902 3 
647 3084 3083 1 
648 3333 3351 2 
649 4337 4627 2 
650 4349 4861 2 
651 4861 4862 1 
652 4866 4374 3 
653 4866 4865 1 
654 3607 3639 2 
655 3603 5373 2 
656 3603 3604 1 
657 5133 5134 1 
658 5346 5345 1 
659 5346 5666 3 
660 5346 5592 3 
661 5666 5868 3 
662 3860 4858 3 
663 3860 3859 1 
664 5628 3860 3 
665 5628 5627 1 
666 4858 5628 3 
667 4858 4857 1 
668 5376 5588 3 
669 5375 5627 2 
670 5375 5376 1 
671 4839 5345 2 
672 357 358 1 
673 357 6119 2 
674 6119 6120 1 
675 5850 5860 3 
676 5850 5849 1 
677 5860 872 3 
678 5860 5859 1 
679 872 5850 3 
680 872 871 1 
681 921 1165 2 
682 1165 1166 1 
683 1132 648 3 
684 1132 1131 1 
685 1354 1353 1 
686 660 1354 3 
687 585 1149 2 
688 1840 2136 3 
689 1840 1839 1 
690 1638 1618 3 
691 1638 1637 1 
692 1638 1840 3 
693 1618 2136 3 
694 1618 1617 1 
695 1618 1840 3 
696 2136 1638 3 
697 2136 2135 1 
698 1617 2405 2 
699 1380 2124 3 
700 1380 1379 1 
701 1380 1868 3 
702 2405 2406 1 
703 1862 1380 3 
704 1862 1861 1 
705 1868 1862 3 
706 1868 1867 1 
707 1868 2124 3 
708 2124 1862 3 
709 2124 2123 1 
710 1629 2375 2 
711 1846 2352 3 
712 1846 1845 1 
713 2381 2869 2 
714 2381 2382 1 
715 2622 3380 3 
716 2622 2621 1 
717 3380 2588 3 
718 3380 3379 1 
719 2631 2843 2 
720 3083 3353 2 
721 3126 3886 3 
722 3126 3125 1 
723 3115 3129 2 
724 3060 3108 3 
725 4630 4629 1 
726 4628 4630 3 
727 3367 3599 2 
728 4627 4628 1 
729 3623 3625 2 
730 5136 4606 3 
731 3624 3634 3 
732 3624 3623 1 
733 3616 3858 3 
734 3616 3615 1 
735 3616 3624 3 
736 3616 3634 3 
737 3858 3624 3 
738 3858 3857 1 
739 3608 3607 1 
740 3634 3858 3 
741 3634 3633 1 
742 4862 3608 3 
743 4635 4871 2 
744 5374 4620 3 
745 5374 5373 1 
746 4872 4884 3 
747 4872 4871 1 
748 4872 5374 3 
749 4620 4872 3 
750 4620 4619 1 
751 4884 4620 3 
752 4884 4883 1 
753 4884 5374 3 
754 5134 5346 3 
755 5848 5106 3 
756 5848 5847 1 
757 5868 5848 3 
758 5868 5867 1 
759 5106 5868 3 
760 5106 5105 1 
761 5592 5666 3 
762 5592 5848 3 
763 5591 5592 1 
764 871 6125 2 
765 594 5864 3 
766 594 593 1 
767 5858 594 3 
768 5858 5857 1 
769 5864 5858 3 
770 5864 5863 1 
771 1113 6131 2 
772 865 1395 2 
773 1374 1644 3 
774 1633 1634 1 
775 1574 1906 3 
776 1574 1644 3 
777 592 866 3 
778 592 591 1 
779 866 1890 3 
780 866 865 1 
781 1644 1643 1 
782 1630 1629 1 
783 1634 874 3 
784 1864 1846 3 
785 1864 1863 1 
786 2352 1864 3 
787 2352 2351 1 
788 1883 2123 2 
789 2397 3375 2 
790 3109 3381 2 
791 2620 3126 3 
792 2620 2619 1 
793 3886 2620 3 
794 3886 3885 1 
795 3108 3107 1 
796 3116 3600 3 
797 3116 3115 1 
798 3354 3116 3 
799 3354 3353 1 
800 3600 3354 3 
801 3600 3599 1 
802 2864 3116 3 
803 2864 2863 1 
804 2864 3600 3 
805 2864 3354 3 
806 2863 3133 2 
807 4606 4605 1 
808 4144 4390 3 
809 4144 4143 1 
810 4636 4144 3 
811 4636 4635 1 
812 4390 4636 3 
813 4390 4389 1 
814 4383 4883 2 
815 5635 5636 1 
816 5635 5847 2 
817 6142 5892 3 
818 5892 5891 1 
819 5636 5930 3 
820 5930 5929 1 
821 5882 132 3 
822 5882 5881 1 
823 5882 6092 3 
824 5882 6102 3 
825 6125 6126 1 
826 91 593 2 
827 1141 1142 1 
828 641 642 1 
829 641 1633 2 
830 1391 1392 1 
831 1391 1889 2 
832 873 1141 2 
833 591 1885 2 
834 874 873 1 
835 1905 1906 1 
836 1887 1905 2 
837 1886 1406 3 
838 1886 1885 1 
839 1886 1888 3 
840 1888 1658 3 
841 1888 1887 1 
842 1406 1658 3 
843 1406 1405 1 
844 1406 1888 3 
845 1658 1886 3 
846 1658 1657 1 
847 1405 2639 2 
848 2122 2138 3 
849 2122 2121 1 
850 2638 2122 3 
851 2638 2637 1 
852 2150 2122 3 
853 2150 2149 1 
854 2150 2638 3 
855 2138 2638 3 
856 2138 2137 1 
857 2138 2150 3 
858 2401 2663 2 
859 3382 3376 3 
860 3382 3381 1 
861 3138 3376 3 
862 3138 3137 1 
863 3138 3382 3 
864 3376 2892 3 
865 3376 3375 1 
866 2892 3382 3 
867 2892 2891 1 
868 2892 3138 3 
869 3915 3925 2 
870 4143 4157 2 
871 3917 4169 2 
872 4142 4384 3 
873 4142 4141 1 
874 4142 4408 3 
875 5116 4638 3 
876 5116 5115 1 
877 4638 5404 3 
878 4638 4637 1 
879 5404 5116 3 
880 5404 5403 1 
881 3880 5116 3 
882 3880 3879 1 
883 3880 5404 3 
884 3880 4638 3 
885 6091 6101 2 
886 5886 5885 1 
887 5658 5886 3 
888 126 6136 3 
889 126 125 1 
890 6136 342 3 
891 6136 6135 1 
892 342 126 3 
893 342 341 1 
894 341 417 2 
895 418 417 1 
896 1684 418 3 
897 1163 1164 1 
898 649 1163 2 
899 1127 1371 2 
900 1199 1911 2 
901 1718 1200 3 
902 1718 1717 1 
903 1718 2950 3 
904 2950 1688 3 
905 2950 2949 1 
906 1128 1130 3 
907 1128 1127 1 
908 1372 1128 3 
909 1372 1371 1 
910 1372 1612 3 
911 1920 2658 3 
912 1920 1919 1 
913 2658 1388 3 
914 2658 2657 1 
915 1657 1913 2 
916 1663 1923 2 
917 2121 2679 2 
918 2679 2680 1 
919 1686 1944 3 
920 1686 1685 1 
921 1388 1920 3 
922 1388 1387 1 
923 1944 1198 3 
924 1944 1943 1 
925 1198 1686 3 
926 1198 1197 1 
927 1198 1892 3 
928 2165 2166 1 
929 2165 3417 2 
930 2878 2914 3 
931 2878 2877 1 
932 2668 3142 3 
933 2668 2667 1 
934 2664 3142 3 
935 2664 2663 1 
936 2664 2668 3 
937 2422 2664 3 
938 2422 2421 1 
939 2422 2668 3 
940 2914 3426 3 
941 2914 2913 1 
942 2877 3663 2 
943 2592 2914 3 
944 2592 2591 1 
945 2592 3426 3 
946 2592 2878 3 
947 3426 2878 3 
948 3426 3425 1 
949 3142 2422 3 
950 3142 3141 1 
951 3144 3148 3 
952 3144 3143 1 
953 3144 3664 3 
954 3144 3158 3 
955 3664 3148 3 
956 3664 3663 1 
957 3148 3158 3 
958 3148 3147 1 
959 3158 3664 3 
960 3158 3157 1 
961 3143 3401 2 
962 3135 3147 2 
963 3916 3892 3 
964 3916 3915 1 
965 3140 3892 3 
966 3140 3139 1 
967 3140 3402 3 
968 3140 3916 3 
969 3402 3916 3 
970 3402 3401 1 
971 4206 3420 3 
972 4206 4205 1 
973 3892 3402 3 
974 3892 3891 1 
975 3136 3652 3 
976 3136 3135 1 
977 3136 3420 3 
978 3136 4206 3 
979 3420 3652 3 
980 3420 3419 1 
981 3652 4206 3 
982 3652 3651 1 
983 3431 4427 2 
984 4427 4428 1 
985 4670 4376 3 
986 4670 4669 1 
987 4622 4670 3 
988 4622 4621 1 
989 4376 4388 3 
990 4376 4375 1 
991 4376 4622 3 
992 4388 4670 3 
993 4388 4387 1 
994 4388 4622 3 
995 4113 4375 2 
996 4660 4678 3 
997 4660 4659 1 
998 3405 3406 1 
999 3405 4873 2 
1000 4141 4387 2 
1001 5677 5921 2 
1002 5678 5677 1 
1003 5678 5682 3 
1004 4922 4921 1 
1005 4922 5678 3 
1006 5682 4922 3 
1007 5657 5658 1 
1008 5657 5861 2 
1009 5889 5901 2 
1010 394 393 1 
1011 162 142 3 
1012 162 161 1 
1013 142 6148 3 
1014 142 141 1 
1015 6148 162 3 
1016 6148 6147 1 
1017 5203 6147 2 
1018 393 691 2 
1019 891 893 2 
1020 892 692 3 
1021 892 891 1 
1022 198 160 3 
1023 198 197 1 
1024 198 892 3 
1025 198 692 3 
1026 692 160 3 
1027 692 691 1 
1028 197 6213 2 
1029 1683 1684 1 
1030 653 1683 2 
1031 6214 174 3 
1032 6214 6213 1 
1033 174 440 3 
1034 174 173 1 
1035 174 6188 3 
1036 654 653 1 
1037 910 654 3 
1038 927 1425 2 
1039 1402 1432 3 
1040 1432 1431 1 
1041 1200 2950 3 
1042 1200 1199 1 
1043 1648 1404 3 
1044 1648 1647 1 
1045 1404 1632 3 
1046 1404 1403 1 
1047 1632 1648 3 
1048 1632 1631 1 
1049 666 1648 3 
1050 666 665 1 
1051 666 1632 3 
1052 666 1404 3 
1053 1661 1935 2 
1054 1670 1669 1 
1055 1935 1936 1 
1056 1674 1670 3 
1057 2687 2688 1 
1058 1688 1200 3 
1059 1688 1687 1 
1060 1688 1718 3 
1061 2651 2687 2 
1062 2166 2680 3 
1063 1664 1924 3 
1064 1664 1663 1 
1065 1664 1892 3 
1066 1924 1662 3 
1067 1924 1923 1 
1068 1924 2166 3 
1069 2169 2415 2 
1070 2411 3425 2 
1071 2675 3161 2 
1072 3139 3891 2 
1073 4678 4684 3 
1074 4678 4677 1 
1075 3432 4660 3 
1076 3432 3431 1 
1077 3432 4678 3 
1078 3432 4684 3 
1079 4684 4660 3 
1080 4684 4683 1 
1081 4874 4430 3 
1082 4874 4873 1 
1083 4874 5686 3 
1084 4664 4874 3 
1085 4664 4663 1 
1086 4430 4664 3 
1087 4430 4429 1 
1088 4430 5686 3 
1089 5686 4664 3 
1090 5686 5685 1 
1091 4165 4643 2 
1092 4166 4165 1 
1093 5144 4166 3 
1094 5689 5690 1 
1095 190 5890 3 
1096 190 189 1 
1097 5890 5894 3 
1098 5890 5889 1 
1099 5894 190 3 
1100 5894 5893 1 
1101 5440 6182 3 
1102 6182 6181 1 
1103 160 892 3 
1104 160 159 1 
1105 159 5911 2 
1106 409 410 1 
1107 409 5385 2 
1108 687 5943 2 
1109 5475 6191 2 
1110 173 405 2 
1111 6191 6192 1 
1112 440 6214 3 
1113 440 439 1 
1114 439 683 2 
1115 931 5967 2 
1116 5967 5968 1 
1117 1936 2414 3 
1118 2414 2413 1 
1119 1171 1191 2 
1120 665 947 2 
1121 1673 1674 1 
1122 1673 2193 2 
1123 1393 2413 2 
1124 2652 2426 3 
1125 2652 2651 1 
1126 1394 1700 3 
1127 1394 1393 1 
1128 1700 1424 3 
1129 1700 1699 1 
1130 1700 1922 3 
1131 1922 1394 3 
1132 1922 1921 1 
1133 1424 1394 3 
1134 1424 1423 1 
1135 1424 1922 3 
1136 2208 2652 3 
1137 2208 2207 1 
1138 2426 2208 3 
1139 2426 2425 1 
1140 3162 3172 3 
1141 3162 3161 1 
1142 3172 2676 3 
1143 3172 3171 1 
1144 2676 3162 3 
1145 2676 2675 1 
1146 2909 3679 2 
1147 3411 4145 2 
1148 4145 4146 1 
1149 3680 3679 1 
1150 3680 3894 3 
1151 2939 3179 2 
1152 2924 3680 3 
1153 2924 3160 3 
1154 2924 3894 3 
1155 3415 3416 1 
1156 2941 3427 2 
1157 4642 4641 1 
1158 4413 4414 1 
1159 4413 4677 2 
1160 4414 4642 3 
1161 4199 4200 1 
1162 4199 5201 2 
1163 5407 5408 1 
1164 4948 3948 3 
1165 4948 4947 1 
1166 3948 4176 3 
1167 3948 3947 1 
1168 5690 5952 3 
1169 5416 5690 3 
1170 5416 5434 3 
1171 5935 5936 1 
1172 5935 6179 2 
1173 5434 5433 1 
1174 5408 5952 3 
1175 5408 5936 3 
1176 4426 4688 3 
1177 4426 4425 1 
1178 4426 5408 3 
1179 5936 5434 3 
1180 5936 5952 3 
1181 5186 5416 3 
1182 5186 5690 3 
1183 5186 5434 3 
1184 4688 5178 3 
1185 4688 4687 1 
1186 4687 5951 2 
1187 5178 4426 3 
1188 5178 5177 1 
1189 5439 5440 1 
1190 5951 5952 1 
1191 224 5944 3 
1192 224 223 1 
1193 5912 224 3 
1194 5912 5911 1 
1195 5944 5912 3 
1196 5944 5943 1 
1197 1430 1429 1 
1198 1428 1427 1 
1199 1428 1430 3 
1200 1418 1428 3 
1201 1418 1430 3 
1202 912 1460 3 
1203 912 911 1 
1204 1460 1156 3 
1205 1460 1459 1 
1206 946 222 3 
1207 946 945 1 
1208 1156 912 3 
1209 1156 1155 1 
1210 1155 1435 2 
1211 925 926 1 
1212 925 1697 2 
1213 1702 932 3 
1214 1702 1701 1 
1215 1437 2181 2 
1216 932 2182 3 
1217 932 931 1 
1218 2182 1702 3 
1219 2182 2181 1 
1220 1455 1456 1 
1221 1195 1455 2 
1222 2672 2194 3 
1223 2672 2671 1 
1224 1676 1438 3 
1225 1676 1675 1 
1226 1438 948 3 
1227 1438 1437 1 
1228 1438 1720 3 
1229 948 1676 3 
1230 948 947 1 
1231 948 1720 3 
1232 1720 1676 3 
1233 1720 1719 1 
1234 1441 1442 1 
1235 1196 2672 3 
1236 1196 1195 1 
1237 1196 1422 3 
1238 1422 2672 3 
1239 1422 1421 1 
1240 1422 2194 3 
1241 2194 1196 3 
1242 2194 2193 1 
1243 1439 1441 2 
1244 2708 2204 3 
1245 2708 2707 1 
1246 2204 2704 3 
1247 2204 2203 1 
1248 3198 2478 3 
1249 3198 3197 1 
1250 2966 3198 3 
1251 2966 2965 1 
1252 2478 2966 3 
1253 2478 2477 1 
1254 2940 2928 3 
1255 2940 2939 1 
1256 3467 3468 1 
1257 3963 3964 1 
1258 2477 3963 2 
1259 3919 3920 1 
1260 3919 4641 2 
1261 4674 4944 3 
1262 4674 4673 1 
1263 4674 4956 3 
1264 4944 5202 3 
1265 4944 4943 1 
1266 4411 4943 2 
1267 5202 4674 3 
1268 5202 5201 1 
1269 4925 5685 2 
1270 4420 4942 3 
1271 4420 4419 1 
1272 4419 5157 2 
1273 4440 4420 3 
1274 4440 4439 1 
1275 4440 4942 3 
1276 4942 4422 3 
1277 4942 4941 1 
1278 4422 4420 3 
1279 4422 4421 1 
1280 4422 4440 3 
1281 4412 4162 3 
1282 4412 4411 1 
1283 4412 4682 3 
1284 4164 4412 3 
1285 4164 4163 1 
1286 4164 4682 3 
1287 4162 4164 3 
1288 4162 4161 1 
1289 4682 4162 3 
1290 4682 4681 1 
1291 3947 4439 2 
1292 4161 4175 2 
1293 4176 4948 3 
1294 4176 4175 1 
1295 6179 6180 1 
1296 4928 5414 3 
1297 4928 4927 1 
1298 4928 6194 3 
1299 4454 4928 3 
1300 4454 4453 1 
1301 4454 6194 3 
1302 4425 4927 2 
1303 998 498 3 
1304 1417 1418 1 
1305 1417 1427 2 
1306 701 1725 2 
1307 1443 1701 2 
1308 1421 1675 2 
1309 965 1479 2 
1310 966 1726 3 
1311 966 965 1 
1312 966 1218 3 
1313 966 1458 3 
1314 1726 1218 3 
1315 1726 1725 1 
1316 1479 1480 1 
1317 2704 2708 3 
1318 2704 2703 1 
1319 3230 2736 3 
1320 3230 3229 1 
1321 3482 3230 3 
1322 3482 3481 1 
1323 3202 3201 1 
1324 2720 3202 3 
1325 2735 3473 2 
1326 3229 3467 2 
1327 3468 3486 3 
1328 3195 3196 1 
1329 3195 3955 2 
1330 4216 3716 3 
1331 4216 4215 1 
1332 3970 3704 3 
1333 3970 4198 3 
1334 3716 4458 3 
1335 3716 3715 1 
1336 4453 6193 2 
1337 6193 6194 1 
1338 4920 4919 1 
1339 4700 4920 3 
1340 4699 4700 1 
1341 4699 5927 2 
1342 5464 6204 3 
1343 229 5931 2 
1344 498 497 1 
1345 472 204 3 
1346 472 471 1 
1347 230 472 3 
1348 230 229 1 
1349 204 230 3 
1350 204 203 1 
1351 474 216 3 
1352 474 473 1 
1353 474 6230 3 
1354 456 474 3 
1355 456 455 1 
1356 425 481 2 
1357 475 725 2 
1358 5738 5737 1 
1359 508 5738 3 
1360 246 5760 3 
1361 246 245 1 
1362 473 5973 2 
1363 482 956 3 
1364 482 481 1 
1365 482 726 3 
1366 726 956 3 
1367 726 725 1 
1368 956 466 3 
1369 956 955 1 
1370 739 740 1 
1371 739 987 2 
1372 1474 1473 1 
1373 1488 1474 3 
1374 1218 1458 3 
1375 1218 1217 1 
1376 1173 1695 2 
1377 1458 1726 3 
1378 1458 1457 1 
1379 1487 1488 1 
1380 1487 1693 2 
1381 1189 1449 2 
1382 1457 1963 2 
1383 3187 3435 2 
1384 3240 2196 3 
1385 3240 3239 1 
1386 2479 3239 2 
1387 2697 3253 2 
1388 3941 4191 2 
1389 2971 3471 2 
1390 3233 3475 2 
1391 3196 3760 3 
1392 3760 3759 1 
1393 3234 3962 3 
1394 3234 3233 1 
1395 4197 4198 1 
1396 3715 4215 2 
1397 4179 4447 2 
1398 3704 3703 1 
1399 4463 4987 2 
1400 208 5934 3 
1401 208 207 1 
1402 208 5496 3 
1403 5934 5470 3 
1404 5934 5933 1 
1405 5470 208 3 
1406 5470 5469 1 
1407 5470 5496 3 
1408 257 497 2 
1409 257 258 1 
1410 237 5737 2 
1411 211 471 2 
1412 460 252 3 
1413 460 459 1 
1414 459 6221 2 
1415 5988 5976 3 
1416 5976 5975 1 
1417 972 460 3 
1418 972 971 1 
1419 252 972 3 
1420 252 251 1 
1421 507 508 1 
1422 507 1461 2 
1423 461 462 1 
1424 461 6005 2 
1425 1964 1450 3 
1426 1964 1963 1 
1427 1450 2490 3 
1428 1450 1449 1 
1429 2490 1964 3 
1430 2490 2489 1 
1431 2233 2247 2 
1432 2968 2474 3 
1433 2968 2967 1 
1434 2228 2968 3 
1435 2228 2227 1 
1436 1954 1450 3 
1437 1954 1953 1 
1438 1954 2490 3 
1439 1954 1964 3 
1440 1234 2968 3 
1441 1234 1233 1 
1442 1234 2228 3 
1443 1234 2474 3 
1444 2247 2248 1 
1445 2474 2228 3 
1446 2474 2473 1 
1447 1245 2489 2 
1448 2225 2473 2 
1449 1933 1951 2 
1450 2694 2190 3 
1451 2190 2189 1 
1452 2220 3240 3 
1453 2220 2219 1 
1454 3436 2446 3 
1455 3436 3435 1 
1456 2448 3436 3 
1457 2448 2447 1 
1458 2196 2220 3 
1459 2196 2195 1 
1460 3714 3713 1 
1461 3980 4494 3 
1462 4494 4493 1 
1463 3434 3994 3 
1464 3434 3433 1 
1465 3994 4246 3 
1466 3994 3993 1 
1467 3968 3234 3 
1468 3968 3967 1 
1469 4000 4260 3 
1470 4000 3999 1 
1471 2986 3988 3 
1472 2986 2985 1 
1473 2986 4000 3 
1474 2986 4260 3 
1475 3988 4000 3 
1476 3988 3987 1 
1477 4260 3988 3 
1478 4260 4259 1 
1479 4180 5208 3 
1480 4180 4179 1 
1481 4694 4180 3 
1482 4694 4693 1 
1483 4988 6216 3 
1484 4988 4987 1 
1485 4988 5200 3 
1486 5200 6216 3 
1487 5200 5199 1 
1488 4184 4988 3 
1489 4184 4183 1 
1490 4184 5200 3 
1491 468 238 3 
1492 468 467 1 
1493 6238 248 3 
1494 6238 6237 1 
1495 258 492 3 
1496 492 491 1 
1497 5513 5983 2 
1498 5474 468 3 
1499 5474 5473 1 
1500 238 5474 3 
1501 238 237 1 
1502 6222 6238 3 
1503 6222 6221 1 
1504 220 234 3 
1505 2242 2992 3 
1506 2242 2241 1 
1507 2476 2242 3 
1508 2476 2475 1 
1509 2992 2476 3 
1510 2992 2991 1 
1511 1760 1759 1 
1512 2248 1760 3 
1513 1986 1508 3 
1514 1727 1759 2 
1515 1220 2738 3 
1516 2738 2737 1 
1517 1520 1252 3 
1518 1520 1519 1 
1519 1246 1520 3 
1520 1246 1245 1 
1521 1252 1246 3 
1522 1252 1251 1 
1523 2276 2964 3 
1524 2276 2275 1 
1525 1219 1220 1 
1526 1219 2655 2 
1527 2961 2963 2 
1528 2447 2721 2 
1529 3484 3496 3 
1530 3496 3495 1 
1531 2985 5717 2 
1532 4952 4951 1 
1533 4952 4972 3 
1534 3966 4952 3 
1535 3966 4972 3 
1536 4972 4971 1 
1537 4759 4760 1 
1538 4726 4722 3 
1539 4726 4725 1 
1540 4726 4990 3 
1541 4990 5718 3 
1542 4990 4989 1 
1543 3965 3966 1 
1544 3965 4951 2 
1545 5718 4726 3 
1546 5718 5717 1 
1547 4505 4759 2 
1548 4722 5718 3 
1549 4722 4721 1 
1550 4722 4990 3 
1551 5009 5233 2 
1552 731 1471 2 
1553 5736 5698 3 
1554 5736 5735 1 
1555 5736 6212 3 
1556 1472 1471 1 
1557 6226 1472 3 
1558 5698 5984 3 
1559 5698 5697 1 
1560 5698 6212 3 
1561 6212 5984 3 
1562 6212 6211 1 
1563 491 515 2 
1564 5984 5736 3 
1565 5984 5983 1 
1566 1236 6 3 
1567 1236 1235 1 
1568 6 762 3 
1569 6 5 1 
1570 762 1236 3 
1571 762 761 1 
1572 1478 1728 3 
1573 1478 1477 1 
1574 1478 1970 3 
1575 1728 2004 3 
1576 1728 1727 1 
1577 1728 1970 3 
1578 2004 1478 3 
1579 2004 2003 1 
1580 1970 2004 3 
1581 1970 1969 1 
1582 2034 2758 3 
1583 2034 2033 1 
1584 2034 2744 3 
1585 2268 2034 3 
1586 2268 2267 1 
1587 2758 2268 3 
1588 2758 2757 1 
1589 2744 2268 3 
1590 2744 2743 1 
1591 2744 2758 3 
1592 2501 2755 2 
1593 2262 2502 3 
1594 2262 2261 1 
1595 2502 2796 3 
1596 2502 2501 1 
1597 2288 2532 3 
1598 2288 2287 1 
1599 2796 2262 3 
1600 2796 2795 1 
1601 3256 3270 3 
1602 3256 3255 1 
1603 3251 3991 2 
1604 3986 3985 1 
1605 3725 4497 2 
1606 3758 3986 3 
1607 4264 4263 1 
1608 3777 4263 2 
1609 3998 4498 3 
1610 3998 3997 1 
1611 4512 4264 3 
1612 4506 4505 1 
1613 4278 4506 3 
1614 4780 5010 3 
1615 4780 4779 1 
1616 5010 5260 3 
1617 5010 5009 1 
1618 5260 4780 3 
1619 5260 5259 1 
1620 5996 5995 1 
1621 5995 6225 2 
1622 6225 6226 1 
1623 745 1009 2 
1624 13 5755 2 
1625 259 6231 2 
1626 253 733 2 
1627 526 274 3 
1628 526 525 1 
1629 483 747 2 
1630 788 780 3 
1631 788 787 1 
1632 788 1020 3 
1633 1026 788 3 
1634 1026 1025 1 
1635 6231 6232 1 
1636 23 24 1 
1637 23 759 2 
1638 1020 1026 3 
1639 1020 1019 1 
1640 780 1026 3 
1641 780 779 1 
1642 780 1020 3 
1643 273 1285 2 
1644 754 264 3 
1645 754 753 1 
1646 264 1242 3 
1647 264 263 1 
1648 249 250 1 
1649 249 787 2 
1650 1286 1285 1 
1651 24 1286 3 
1652 1221 1222 1 
1653 1011 1243 2 
1654 1021 1493 2 
1655 1012 756 3 
1656 1012 1011 1 
1657 975 976 1 
1658 975 1723 2 
1659 505 1275 2 
1660 1974 2266 3 
1661 1494 1504 3 
1662 1494 1493 1 
1663 1973 1974 1 
1664 769 1249 2 
1665 1228 1514 3 
1666 1228 1227 1 
1667 1256 1504 3 
1668 1256 1255 1 
1669 1256 1484 3 
1670 1256 1494 3 
1671 502 1724 3 
1672 502 1514 3 
1673 502 976 3 
1674 1724 1723 1 
1675 773 774 1 
1676 773 2003 2 
1677 976 1724 3 
1678 976 1974 3 
1679 1278 1974 3 
1680 1278 1724 3 
1681 504 1032 3 
1682 504 1276 3 
1683 504 1278 3 
1684 1276 782 3 
1685 1276 1275 1 
1686 2506 2768 3 
1687 2506 2505 1 
1688 2997 2998 1 
1689 1995 2997 2 
1690 1509 1295 2 
1691 2261 2533 2 
1692 2017 2267 2 
1693 2251 2252 1 
1694 2251 3211 2 
1695 2508 2016 3 
1696 2508 2507 1 
1697 2520 2508 3 
1698 2520 2519 1 
1699 2244 2016 3 
1700 2244 2243 1 
1701 2244 2508 3 
1702 2244 2520 3 
1703 2255 2739 2 
1704 2016 2520 3 
1705 2016 2015 1 
1706 1264 2750 3 
1707 1264 1263 1 
1708 2778 2504 3 
1709 2778 2777 1 
1710 2740 2504 3 
1711 2740 2739 1 
1712 2740 2778 3 
1713 2014 2022 3 
1714 2014 2013 1 
1715 2534 2014 3 
1716 2534 2533 1 
1717 2022 2534 3 
1718 2022 2021 1 
1719 2022 2486 3 
1720 2742 3026 3 
1721 2749 3231 2 
1722 3026 2540 3 
1723 2486 2742 3 
1724 2252 2976 3 
1725 2252 2486 3 
1726 2252 2742 3 
1727 2540 2539 1 
1728 2519 3241 2 
1729 3011 3243 2 
1730 3242 3262 3 
1731 3242 3241 1 
1732 3242 3314 3 
1733 2974 3242 3 
1734 2974 2973 1 
1735 2974 3314 3 
1736 4267 4507 2 
1737 3314 3262 3 
1738 3314 3313 1 
1739 3237 3269 2 
1740 2013 2777 2 
1741 3012 3022 3 
1742 3012 3011 1 
1743 3012 3514 3 
1744 3262 2974 3 
1745 3262 3261 1 
1746 3514 3022 3 
1747 3514 3513 1 