ITEM: TIMESTEP
8680
ITEM: NUMBER OF ATOMS
6250
ITEM: BOX BOUNDS pp pp ff
0.0000000000000000e+00 7.2168784000000002e+01
0.0000000000000000e+00 7.2168784000000002e+01
0.0000000000000000e+00 1.2000000000000000e+01
ITEM: ATOMS type mol xu yu zu
1 1 -3.02701077 3.47105647 4.33473542
2 1 -1.95817922 5.92611407 3.00112458
1 2 6.44524572 -2.92126115 8.01389048
2 2 8.11138605 -3.47790258 5.60590378
1 3 2.23704909 -3.26142158 5.71425719
2 3 1.62866157 -0.46332097 6.81740870
1 4 0.85217947 -0.03552058 9.08420030
2 4 1.74513942 2.57261494 7.81186562
1 5 -2.57015894 -1.89994187 8.42737907
2 5 -1.25014713 -0.14391654 10.24416464
1 6 0.12178170 4.73238596 1.47086633
2 6 -1.38954408 6.84899833 2.87800268
1 7 1.65149755 0.56686344 5.11384710
2 7 0.39555453 -1.13626125 2.95960783
1 8 3.85238447 9.81137036 7.29684090
2 8 4.14969693 11.37298564 4.83587718
1 9 3.02072671 6.33550799 9.73682979
2 9 5.40444631 7.85173946 8.88586483
1 10 -0.05603741 8.27680760 10.01483817
2 10 0.95716741 6.00395931 8.26833858
1 11 -3.11656111 9.46062776 4.34316091
2 11 -1.03640963 7.33492086 4.45212259
1 12 3.43017108 8.32148048 5.45296110
2 12 5.02848326 5.90033611 6.03919373
1 13 1.27173569 3.07841045 7.67402463
2 13 1.67900445 0.22000123 6.75887543
1 14 5.50679726 10.47175920 5.77306069
2 14 4.81139637 9.09198372 3.22566037
1 15 2.42162443 5.72786817 9.48591316
2 15 4.00085854 7.88580004 8.40901702
1 16 0.50506451 5.29925804 7.21970369
2 16 3.23303822 6.03237625 8.38630876
1 17 -2.15106534 6.59357910 9.05466691
2 17 -0.56994315 5.16899903 6.78650190
1 18 -2.86529849 7.23074790 7.83823718
2 18 -0.41289947 6.60014729 6.33251354
1 19 1.90734814 4.88793057 7.41992134
2 19 4.85064609 5.97993292 7.80821134
1 20 0.18672266 10.60931201 5.53225272
2 20 -0.49577020 10.53090504 2.60341944
1 21 -4.14158244 11.18792668 3.56071787
2 21 -1.73187695 12.35940396 2.36577600
1 22 1.41991131 12.85924141 5.83129162
2 22 1.16582098 10.48451919 7.40268905
1 23 2.94791957 13.33733220 5.85207398
2 23 0.63997297 11.87634959 7.24656798
1 24 -1.07840640 12.22139603 10.14931448
2 24 -2.13607228 10.51691167 8.05809851
1 25 -0.82081166 11.85312614 9.86905676
2 25 -1.62792132 11.83848986 6.96110283
1 26 0.37286775 12.50364414 2.69391540
2 26 -2.19193012 14.01968987 3.71879556
1 27 2.27294222 15.12001754 5.69904132
2 27 0.01516087 16.30125998 4.10313719
1 28 -1.41601960 16.10782632 7.81638502
2 28 -1.79440171 16.86706920 4.89797529
1 29 2.68358314 10.99470958 2.00977133
2 29 5.70556892 10.96229095 2.44617038
1 30 3.33889733 23.69127899 6.40523784
2 30 1.36498581 21.49239016 7.14488392
1 31 2.97960558 18.45048904 5.37273744
2 31 2.39921683 15.64826498 6.36903856
1 32 1.56317384 17.39891268 7.26040701
2 32 -0.90919937 19.08432298 7.21815851
1 33 1.01442627 18.54470452 5.59289166
2 33 0.06873162 15.95863068 6.73513543
1 34 2.04681738 18.65642433 10.28782771
2 34 3.90311357 20.18701131 8.48505767
1 35 -2.27440325 16.95892230 7.35295747
2 35 0.52299288 15.84771049 7.17779576
1 36 2.72869957 16.93209189 3.48711172
2 36 3.97960006 18.56947811 1.28482889
1 37 -1.39385658 21.50151648 5.70680728
2 37 -3.41447774 21.88027568 7.91195352
1 38 5.35579227 18.49019894 4.04791493
2 38 3.61978858 19.93739618 5.99281589
1 39 2.09613588 19.59302748 5.94926190
2 39 -0.36640026 21.17014350 6.57278583
1 40 3.36141798 25.10483494 8.25518127
2 40 5.80022361 25.88792011 6.67999892
1 41 -0.58088976 25.20800368 4.64118461
2 41 0.79765711 26.93359583 2.89413101
1 42 1.06751090 28.68915004 5.00632635
2 42 3.75908267 28.37523270 6.22443231
1 43 5.23364611 24.87241879 7.34557473
2 43 4.25740709 22.21385095 7.90847053
1 44 2.88864329 24.74867261 8.38698696
2 44 1.01851854 23.26036793 10.14951650
1 45 -3.90347557 23.79081617 6.96977814
2 45 -5.59951182 25.36964040 8.84718580
1 46 3.84395118 31.19137374 5.74995038
2 46 5.96462755 33.01060557 4.67707816
1 47 6.59067821 22.49282754 4.01584321
2 47 5.85710797 25.36442464 4.46286420
1 48 8.54714681 18.88640010 8.33569857
2 48 7.68671723 21.83026704 8.42930800
1 49 -0.73876765 26.60727988 6.68064717
2 49 -3.19823125 27.12154113 8.25442035
1 50 -0.07455787 22.23633833 10.05103674
2 50 2.59363824 21.53353683 8.77817625
1 51 -2.53180166 32.26062397 2.43890387
2 51 -0.21789324 33.63827046 1.26803046
1 52 5.82891742 33.67049752 10.71284482
2 52 3.04963411 32.38117832 10.09545533
1 53 1.86118494 33.70715743 4.97348217
2 53 -0.50598139 33.47154793 6.94723732
1 54 5.35769678 29.49291746 9.99742027
2 54 6.99485911 27.06134139 9.27966133
1 55 1.18968776 28.61118393 9.86185013
2 55 -1.67918697 28.14235095 10.56787400
1 56 7.81646793 30.44815093 5.19880442
2 56 4.84641233 30.80721830 4.72572815
1 57 -1.09073222 30.80345453 3.94364556
2 57 1.38904306 32.51427146 3.58336582
1 58 6.27716883 32.27195393 4.56516062
2 58 3.64434619 33.43440180 4.07902686
1 59 -0.15526223 31.29840404 8.43463436
2 59 0.89451077 34.01207054 9.27611983
1 60 -4.17430939 31.04131338 7.49265770
2 60 -3.33428570 31.10644366 10.34675989
1 61 -0.67894313 38.88412399 2.75710510
2 61 -3.63452916 39.55989929 2.13195659
1 62 1.14643689 35.48368989 10.34796161
2 62 1.40630636 33.87904809 7.84980551
1 63 -1.97236592 29.76152023 4.38983551
2 63 -1.45257252 29.37955268 1.48205359
1 64 2.24768163 36.12906819 9.40829959
2 64 3.63055401 38.58553316 8.38028307
1 65 6.90022527 33.19871881 9.44853314
2 65 5.47176005 33.78894522 6.95876926
1 66 -0.83176876 37.19606882 4.91076155
2 66 1.00222111 35.98439718 2.98996422
1 67 6.45718131 36.25200999 3.10519688
2 67 7.80552522 38.43668979 4.69212914
1 68 5.90271318 41.24410740 5.47825729
2 68 3.13588385 40.58544338 6.46661974
1 69 0.69565025 37.78669585 9.05084948
2 69 3.52101387 38.37478777 8.02581768
1 70 3.59288496 36.31563174 4.65742193
2 70 4.91797751 36.70289694 7.40203931
1 71 3.22404972 44.19071157 4.89209400
2 71 1.12103666 42.00154355 4.57638732
1 72 4.48402088 40.88232244 5.79574979
2 72 5.84650517 40.71312100 8.36824670
1 73 -7.65476881 41.78697859 4.46536028
2 73 -7.38310684 40.91843777 1.62394431
1 74 0.87847043 36.04362917 4.40700509
2 74 0.46986388 39.06287284 4.21634380
1 75 0.51104463 36.17738761 9.07359808
2 75 -1.32575323 37.88880174 10.38764717
1 76 0.61773042 43.58898390 1.70242855
2 76 1.46691862 44.67776319 4.47132966
1 77 2.94096957 51.86616215 6.75576814
2 77 3.37869487 53.44164036 4.27673611
1 78 1.97400427 48.02649823 9.92743373
2 78 -0.45282564 46.40376976 9.14355210
1 79 4.73835691 45.09125468 10.84286885
2 79 6.14444605 43.82492934 8.67230659
1 80 -5.14201598 47.18129292 9.75068466
2 80 -2.91820892 45.12729106 10.16593751
1 81 2.75788162 49.41742500 2.63543405
2 81 -0.18220971 49.31497970 2.49320086
1 82 1.67666814 44.73425806 1.90697932
2 82 3.68818311 42.56451570 2.35194979
1 83 3.08825812 49.38680526 8.98648550
2 83 0.45976560 49.40603509 7.45877127
1 84 2.99211683 49.35231436 5.10022128
2 84 2.79485983 51.41321046 7.18703633
1 85 5.17483327 50.95444571 8.74950308
2 85 2.35343169 52.06544493 9.16824212
1 86 1.48066077 52.75469279 1.37817259
2 86 -1.33261270 51.85510012 1.90789046
1 87 1.61338860 53.57977294 4.66063909
2 87 2.17292271 53.49232612 7.53667248
1 88 2.81723556 50.44064719 6.36282598
2 88 3.27987594 52.49627224 8.68306846
1 89 -1.43150998 50.40944242 3.49161448
2 89 -1.77725420 48.40368102 5.73457263
1 90 -1.82233199 49.14014947 8.04638426
2 90 0.06694204 51.06299596 9.35846517
1 91 -0.84157254 57.24619586 4.50605424
2 91 1.46186427 56.25779063 6.27778947
1 92 3.20371658 55.51748287 10.52049506
2 92 3.08251165 57.62922906 8.18561376
1 93 0.55191551 50.08722084 8.27856467
2 93 -2.25606051 50.72951084 8.71345343
1 94 0.50313688 52.35963948 10.39482542
2 94 1.25283889 54.35270914 8.43452832
1 95 4.60147910 52.36849281 9.73378311
2 95 7.61696753 53.47579788 10.08559161
1 96 -0.94890588 59.20739713 4.91280790
2 96 -1.48824612 62.12804151 4.79261713
1 97 2.38706878 54.17831289 4.75320089
2 97 0.44073974 55.05216692 6.85542457
1 98 4.39001164 55.73145650 9.30120756
2 98 7.10647106 55.36840548 8.00564309
1 99 1.71096677 49.75950528 6.20132746
2 99 -1.16522678 49.68889147 6.98042041
1 100 -2.22816710 55.52151163 4.00846661
2 100 -0.12929614 54.33051108 2.28968228
1 101 3.38983611 61.88593092 1.16721610
2 101 0.73880821 60.69855501 1.84074453
1 102 0.32324569 58.45118147 5.94587652
2 102 -1.25465773 56.55683544 7.55622146
1 103 3.33961497 59.57906437 3.49151131
2 103 1.91093608 61.48207093 1.65106045
1 104 -2.94778759 55.19664540 10.88670120
2 104 -3.67667399 58.07306190 10.15598143
1 105 -1.70733994 58.94103389 5.13968930
2 105 0.12141456 56.65439035 5.92656580
1 106 -1.42449105 60.11379652 2.86934915
2 106 1.61494008 60.87067221 2.64587560
1 107 1.15868092 57.12422999 2.53664070
2 107 -1.32658842 58.56106595 3.02542988
1 108 4.05161163 56.69994723 7.47766990
2 108 1.85851931 58.49873416 8.23610095
1 109 0.96104399 59.62882955 10.95468157
2 109 3.84679512 59.99529469 10.01350675
1 110 1.41738034 66.45716784 9.76780143
2 110 -1.06911766 65.43661664 10.70530228
1 111 4.76831177 59.38067199 6.89206054
2 111 1.93919364 60.24667247 5.83529503
1 112 1.13178945 59.52442253 5.91831186
2 112 0.54684536 62.45634584 5.64857781
1 113 0.14564968 60.76545156 6.79961873
2 113 2.17321611 62.50751030 8.13016504
1 114 5.97490069 62.00301664 10.08674995
2 114 7.58840387 64.50612268 10.52070760
1 115 1.30836739 59.95364825 8.85335171
2 115 1.27931414 62.74756537 7.69096740
1 116 -1.63521886 64.78840940 1.24541868
2 116 -0.07472303 67.29808090 1.57185773
1 117 -0.54914443 66.74053091 7.56658484
2 117 -2.59728374 68.87819621 6.88583547
1 118 2.62167206 67.62061713 3.92808154
2 118 1.39780513 64.85644946 3.05232836
1 119 -0.91405432 68.25566379 9.35631738
2 119 -1.50468396 67.17281710 6.52753356
1 120 4.30233419 68.46089748 7.17329023
2 120 2.87138873 70.98131856 7.58789264
1 121 -1.67930598 72.51484334 9.18731887
2 121 0.28617335 70.18721446 9.68842918
1 122 -1.91000106 73.04166474 3.43717733
2 122 -4.63795853 74.31333168 3.83606115
1 123 0.94246906 71.35918597 6.75097145
2 123 0.88725915 73.67723513 4.83001371
1 124 0.16232524 62.99906746 10.16649243
2 124 2.68795944 64.41312820 9.53511865
1 125 0.94233563 73.70163796 9.21217982
2 125 2.65684693 73.02385223 6.80530729
1 126 3.66885624 -3.50144038 5.57908723
2 126 5.91626859 -5.55699236 5.39135737
1 127 6.01267723 2.34050974 4.35596904
2 127 4.44725717 0.50897352 6.15664012
1 128 1.04587320 -2.32224436 9.84538334
2 128 2.11812055 0.42359637 9.33590519
1 129 6.41898835 2.07317925 6.51134906
2 129 6.86280580 -0.72554280 7.48019206
1 130 -0.11692010 2.98702331 5.41379953
2 130 0.36529264 5.32783488 3.51805449
1 131 4.80043967 2.48171791 10.76546158
2 131 4.08521873 0.11022618 9.00693682
1 132 3.31979496 1.74681390 5.98372487
2 132 6.20457501 0.92501721 5.68127393
1 133 2.88633966 4.72787483 4.99640437
2 133 5.48587076 5.49181726 3.77312252
1 134 3.55672832 0.43622276 5.78456028
2 134 5.84086096 2.14513721 6.91947828
1 135 5.13928227 7.79467954 9.89998037
2 135 2.71910527 6.42698378 9.11005888
1 136 6.50826204 12.00308628 4.47719404
2 136 4.92234771 10.22250271 2.87850679
1 137 7.69395002 2.71821454 1.38832917
2 137 6.22635957 1.42026888 3.65839397
1 138 3.28572107 7.55258865 8.78665405
2 138 4.20746000 9.56627374 10.74946326
1 139 -2.88388066 8.82685107 1.80394741
2 139 0.04208990 8.39475931 2.19143415
1 140 9.00660841 4.06505945 7.58386553
2 140 10.59699404 5.45102130 9.73696395
1 141 6.73373636 11.41763873 6.43571393
2 141 5.46956642 9.01608338 5.03832725
1 142 2.23919486 6.76850632 3.26663473
2 142 -0.71391701 6.10482614 4.01470867
1 143 -0.86826801 3.85205500 4.12549273
2 143 1.66791373 3.61281733 2.58014466
1 144 4.61571650 8.12148417 5.53098445
2 144 4.23504602 10.91662458 6.47194287
1 145 2.70671610 14.89967780 9.67915422
2 145 5.38172270 13.64680907 10.12146645
1 146 7.24071619 10.68537411 6.40558251
2 146 7.72368473 12.18530522 4.02059901
1 147 7.20100844 16.46359678 6.13271588
2 147 6.07519643 14.58732582 3.98027760
1 148 -1.18877618 15.40727895 4.77585221
2 148 0.28200192 14.02898559 7.03876912
1 149 7.98556694 12.62637675 9.58260110
2 149 5.24088027 12.89460746 8.66880457
1 150 8.99648851 19.61647444 7.86675731
2 150 7.07364264 18.81577315 5.91313272
1 151 5.75309304 16.43283464 1.98131107
2 151 5.89203670 14.49203830 4.24372135
1 152 2.02041213 23.46205740 7.37542924
2 152 -0.11022137 21.73758492 8.48349390
1 153 -1.94477174 9.96437421 7.78050868
2 153 -2.93457243 12.68089027 7.50851124
1 154 3.88834270 20.39848305 10.66642633
2 154 1.14149825 20.96871135 9.74101235
1 155 4.12733457 12.66382307 10.65943580
2 155 1.14687287 12.91758555 10.89641727
1 156 1.93534292 20.30007576 3.89292666
2 156 4.70549837 18.98678921 3.90493758
1 157 2.70480089 23.66239791 3.65657888
2 157 3.33878950 21.36410197 5.39555061
1 158 6.26998045 19.24575862 6.71584025
2 158 3.83594318 17.71092225 7.53458364
1 159 2.30058139 17.70368749 9.52748357
2 159 2.42472913 20.75930330 9.19775538
1 160 5.52372589 20.59196696 9.14727259
2 160 3.02913782 21.31539251 10.82224484
1 161 5.66227528 19.39662785 4.06785806
2 161 6.75227729 22.10980870 3.19952510
1 162 -0.01823999 20.57161816 4.08117242
2 162 -1.70837343 18.20944114 3.25270848
1 163 2.86321908 18.79696953 10.90832440
2 163 2.18780283 16.30170887 9.43270809
1 164 4.58978563 15.97216217 6.60266051
2 164 2.77349726 14.34937908 4.82672732
1 165 5.96053102 20.52526042 9.05894510
2 165 5.15688056 20.33438236 6.15339753
1 166 5.55045528 27.41059458 6.96174755
2 166 4.84133288 26.27896973 4.26954008
1 167 7.70343534 26.04142103 9.91081367
2 167 6.15791256 27.84295255 8.09288873
1 168 3.16007053 24.81983981 7.44053897
2 168 4.67396069 27.03635634 8.85224642
1 169 7.54022146 26.27181090 3.94351641
2 169 8.05695604 23.60009335 2.57609858
1 170 3.20604657 25.87694704 7.30226017
2 170 5.39323117 25.70229287 9.53533901
1 171 4.38411217 30.50032985 3.65423826
2 171 1.35304683 30.29381105 3.76099016
1 172 9.64882660 26.95244194 5.29236223
2 172 7.80022309 28.46445369 3.45222957
1 173 2.72900845 28.22352780 5.19532558
2 173 2.03779265 25.51270291 6.19290259
1 174 11.01024142 24.75969989 2.51845160
2 174 8.10965462 24.81146711 1.76635279
1 175 3.60384811 25.26261002 10.45158842
2 175 5.73001259 23.13146263 10.44650500
1 176 1.79666701 30.30929165 2.61151241
2 176 1.93587995 33.08433869 1.56151923
1 177 7.34669901 30.01606485 7.92856946
2 177 8.98545296 31.38761395 5.80793965
1 178 3.60526111 27.04793380 3.49433481
2 178 1.20325465 25.42236437 4.33100559
1 179 -3.97615772 30.30283089 8.67132988
2 179 -1.44843787 29.33746222 9.94423623
1 180 1.37584707 25.85531422 9.15349644
2 180 3.52758338 26.36425321 7.18917754
1 181 8.09580475 27.30141010 3.88958072
2 181 7.02778397 24.82764765 2.48147385
1 182 5.63475341 31.52210416 5.91713998
2 182 3.33193226 31.46739333 4.09201936
1 183 6.58317869 32.04070587 3.89748524
2 183 5.58370756 32.53384695 6.64134655
1 184 5.07405900 37.72483835 7.32845479
2 184 6.31015334 35.21986008 6.31961806
1 185 3.83302401 33.72829926 5.99681797
2 185 2.77260813 34.84090683 8.42950329
1 186 4.91742137 34.28238715 6.05986189
2 186 6.93571635 35.50247139 7.83899872
1 187 -2.05854125 33.84179227 3.36789473
2 187 -2.96876241 31.10849062 4.21637685
1 188 3.00764837 31.21607641 4.85829789
2 188 4.67126531 31.81625937 2.26406370
1 189 3.92136794 36.51853808 9.46877474
2 189 3.01560421 34.97595788 6.98508372
1 190 5.99306709 36.03888587 8.13180520
2 190 8.98954790 35.50619271 8.86232821
1 191 3.37518031 34.53523488 8.51187377
2 191 4.90428290 36.90326944 9.10340258
1 192 5.65251176 38.92128304 8.70537984
2 192 8.34158684 39.81698110 7.93351264
1 193 5.55851057 41.46321936 7.55174668
2 193 8.43325918 40.97561601 8.04618949
1 194 7.15647577 39.88753527 7.68874818
2 194 5.25607754 38.43563488 9.57255056
1 195 5.19266761 40.57357463 8.41115769
2 195 2.80500494 39.75048358 6.83399544
1 196 4.17740588 40.53612152 5.19517585
2 196 1.25766780 40.72948231 4.83060151
1 197 3.29527358 38.30967800 3.98352352
2 197 5.59441655 36.70492922 4.19013375
1 198 5.94145427 39.66156220 10.22483551
2 198 8.20060970 40.29376062 8.59719047
1 199 2.18038653 36.18049311 5.07344638
2 199 1.66849116 33.37731311 6.25619386
1 200 6.00498804 45.02848074 8.56648678
2 200 4.72604647 43.20984659 6.51682572
1 201 3.86940061 47.26208768 8.01829500
2 201 6.49062600 46.36221014 9.43098119
1 202 6.92506875 44.10070847 3.19234432
2 202 9.53271592 43.51847130 1.77782869
1 203 7.61096968 45.84667641 6.45663393
2 203 5.43561465 47.71651827 7.13087816
1 204 3.48751740 46.59376563 9.74261330
2 204 1.99282928 44.34073294 8.34864747
1 205 3.27702940 45.82176665 5.75068875
2 205 4.01601798 48.67435191 6.42315803
1 206 6.04498792 45.53017188 5.53934754
2 206 3.59909756 46.84416535 6.89562225
1 207 1.36101625 44.17606935 7.58681851
2 207 1.08859472 45.76513901 4.99965628
1 208 -0.71683203 46.23829662 2.17815861
2 208 -0.70269815 47.58737894 4.89070009
1 209 9.22653553 47.51582357 10.74913658
2 209 6.34304035 48.39811551 10.67453920
1 210 5.35712307 43.33957728 6.91334533
2 210 3.53291686 41.35281342 5.60620569
1 211 3.08182521 50.91813775 6.83887990
2 211 1.69824085 48.35373601 6.64957915
1 212 5.66641288 52.82789154 3.53625841
2 212 7.71945434 53.64209959 1.52584349
1 213 7.79505213 51.96091486 5.62598829
2 213 6.77511749 54.68278618 4.98019240
1 214 1.30070569 50.99796770 9.21326555
2 214 -1.15455104 50.74105952 7.54368739
1 215 0.83351168 46.55930150 7.59388061
2 215 1.11650274 49.64237350 7.65220150
1 216 0.97080432 54.62886363 5.43208836
2 216 3.32501783 54.69475666 3.62999234
1 217 2.86404478 59.36416775 6.12663125
2 217 4.84985098 57.20823799 5.50546306
1 218 2.82669189 52.55434278 4.23381962
2 218 5.54032708 53.05208262 5.20168912
1 219 4.03059178 58.46997535 10.77133242
2 219 4.43876727 58.59867255 7.79092199
1 220 5.57248813 55.15555327 5.92212076
2 220 2.67077958 54.63486060 6.08766930
1 221 1.95949687 56.28050633 4.00218432
2 221 3.04392421 54.40023904 6.01880381
1 222 2.86578863 55.05967698 9.73851006
2 222 2.85530890 57.90967448 10.56976054
1 223 5.75052707 56.34949655 4.81483672
2 223 5.22853895 56.27918660 1.84711199
1 224 0.95951887 58.84297588 7.46111717
2 224 3.09781178 58.01371302 9.47941515
1 225 1.09510261 60.06177625 10.53151308
2 225 -1.68918452 60.97950009 9.93869030
1 226 1.36233864 62.58385560 6.81498976
2 226 -0.77906293 60.43222373 7.25360116
1 227 5.06349839 62.82625753 6.86911685
2 227 7.52343493 62.18292806 8.42467022
1 228 3.69680448 62.82871312 7.25913170
2 228 2.94699688 59.85705910 6.48545492
1 229 5.79914729 60.16907727 3.63694409
2 229 4.01071067 62.49056298 3.89955642
1 230 6.56197704 64.21158117 8.68991196
2 230 5.00667327 62.03659625 10.04563393
1 231 6.33602789 63.10144399 2.09616002
2 231 3.27894322 63.02054249 1.35733433
1 232 2.18048871 60.47809881 8.24436902
2 232 0.91744171 59.18419379 5.94959820
1 233 5.05049172 61.79952687 4.64057488
2 233 2.64483944 60.43199625 5.37302949
1 234 4.06233071 65.64693832 5.44059044
2 234 4.36062937 63.17404952 7.20731614
1 235 9.08295910 63.34347483 7.75002743
2 235 7.53715655 64.74871239 9.88966543
1 236 2.56275670 63.24474311 8.11650101
2 236 3.45170093 62.21792437 5.53307518
1 237 4.01792943 65.27142680 6.09871321
2 237 3.61865735 66.33925039 3.32154893
1 238 5.44808985 60.44223947 5.38042715
2 238 3.94540278 61.36580266 7.86276485
1 239 -1.73351057 66.16120292 9.55342501
2 239 0.67418360 64.27124427 10.32642433
1 240 8.67442518 64.23089496 7.06279983
2 240 8.48175879 65.11686757 9.93835286
1 241 1.25389037 67.47885122 5.44689706
2 241 0.45729675 70.08650161 3.89918347
1 242 3.13201246 71.45231353 3.43089438
2 242 4.75297730 70.81426693 1.13824028
1 243 5.33150549 64.52792087 3.41663879
2 243 5.68791697 66.98201023 4.92347415
1 244 3.50053633 66.47421547 6.16703786
2 244 4.13972322 68.69101359 7.92450340
1 245 6.91867552 66.53540808 6.99595509
2 245 9.73416195 67.62953710 6.35044662
1 246 8.00885024 71.71629710 2.15682066
2 246 7.19819398 69.32246876 3.52062974
1 247 4.00401186 75.79364167 9.16917743
2 247 5.04357770 73.37778096 7.90474819
1 248 5.32009537 65.97552139 5.73606130
2 248 6.79616467 67.59728936 3.76316868
1 249 4.38689759 70.48796520 7.01251404
2 249 2.94732965 73.12857823 6.68550634
1 250 0.45395685 71.65297015 7.01588891
2 250 3.14959905 71.72194514 8.38015176
1 251 7.23016510 3.87118651 2.11695370
2 251 9.38555973 5.40545900 3.90012529
1 252 9.56892713 0.71294763 5.88877190
2 252 7.45839689 1.63942513 3.91944392
1 253 11.95716753 2.69538281 10.60325014
2 253 9.92491582 0.45523140 10.92990069
1 254 8.22869678 -3.99682431 5.85348784
2 254 7.24103702 -1.28601752 6.29341694
1 255 9.34033044 -1.66313398 5.27747138
2 255 9.36544263 0.55643065 3.24302279
1 256 11.08423131 3.01419027 2.66859246
2 256 13.61504562 1.54068898 2.32661847
1 257 5.33291512 5.16468362 4.26743445
2 257 7.90845728 3.58524673 3.68709982
1 258 9.82662373 -3.44856840 5.59882622
2 258 7.27944518 -2.25483073 6.83414749
1 259 8.96124780 0.75263059 3.53924381
2 259 10.18259257 -1.32741637 5.20390867
1 260 9.15754020 1.27391011 10.81993412
2 260 9.52710564 2.94161117 8.41218460
1 261 4.32888036 9.33442877 3.19447625
2 261 6.83183655 9.44427204 4.72350409
1 262 2.69234589 9.94332771 7.07155458
2 262 2.96871233 12.73440772 5.96394330
1 263 2.50959039 5.47787934 9.11037066
2 263 5.23949445 6.40684427 9.35077600
1 264 3.72525406 7.49077284 8.02661151
2 264 2.60350322 6.08059442 10.35274031
1 265 7.82608506 5.09370395 7.16967782
2 265 9.77554314 6.13762618 5.28379147
1 266 3.50696363 6.50790359 5.71000832
2 266 5.37536140 5.39101109 3.60446886
1 267 5.08966613 15.11066478 2.23241697
2 267 6.00756671 14.91839203 5.18600365
1 268 6.89790910 10.67117076 7.48931646
2 268 6.87808479 9.05096134 5.00166156
1 269 5.66574981 8.96887303 8.82106217
2 269 4.15971004 10.34671714 6.58497224
1 270 4.72968319 12.98841983 8.52707780
2 270 5.42824079 10.11516522 7.93047163
1 271 12.45679613 14.99771614 1.74080738
2 271 14.39544742 12.76536982 2.39975051
1 272 9.92423102 13.66170522 4.67208033
2 272 10.56150180 14.26624060 1.82572110
1 273 13.33398341 15.29662435 2.95660928
2 273 10.37169566 16.40191530 2.81674481
1 274 6.73675975 9.69114858 4.20856346
2 274 9.04207352 8.58152667 5.72507021
1 275 3.29243212 14.10532701 5.14902161
2 275 4.96592264 16.40940936 4.30512380
1 276 4.03282998 13.46552656 4.19655932
2 276 1.23730024 14.35543576 4.41999862
1 277 0.79590571 15.27271035 6.82268444
2 277 -0.14444720 12.83823618 5.19813772
1 278 3.56020418 14.16037072 6.40909892
2 278 6.24729372 14.91650303 5.14353393
1 279 5.58599723 13.88051841 6.78926397
2 279 6.35089346 15.83601516 4.70706815
1 280 7.11989989 14.25938671 5.51374849
2 280 4.74127826 12.34863396 4.87861953
1 281 11.04330135 20.74907211 1.65490963
2 281 12.98007323 22.09104002 3.39370929
1 282 10.58863050 18.89117497 5.98814196
2 282 12.48056011 18.10346772 3.96162507
1 283 6.23754746 20.29500898 3.33704609
2 283 5.63716588 20.68250150 6.30303497
1 284 10.70530803 17.77250835 4.72713305
2 284 12.57103260 17.24388206 6.97985875
1 285 5.57728114 14.01383914 6.45676633
2 285 3.65098546 12.71336931 4.53849500
1 286 5.63533702 22.77543656 3.09352785
2 286 8.11230135 21.29600238 3.94553979
1 287 9.57168851 16.53482747 6.29279505
2 287 7.98552609 16.35497412 8.79797023
1 288 6.41010754 19.26169522 10.32162838
2 288 4.15837515 17.61388721 9.30211218
1 289 6.43121436 17.09266409 8.69045731
2 289 4.44302954 19.38168112 9.29083078
1 290 3.32366476 22.51459378 6.85363165
2 290 4.20257631 19.69592466 6.97794438
1 291 1.92113169 21.39477248 3.05410089
2 291 4.06672904 22.70629637 1.38252651
1 292 1.87647938 23.99684064 3.58407045
2 292 3.72344545 22.30310111 2.05416847
1 293 3.03776370 25.53715575 5.78053434
2 293 4.54701906 23.75213417 7.47655873
1 294 8.57874400 24.71453408 7.80471834
2 294 5.63570061 24.82541664 6.99621709
1 295 6.09570691 24.11164707 8.60876746
2 295 6.66444546 23.43146721 5.80649728
1 296 11.22753956 30.83112110 1.51850841
2 296 13.23728635 32.96495552 2.31630920
1 297 4.80274699 25.75688423 4.33694652
2 297 3.74282741 27.97645763 2.68606276
1 298 5.26619443 25.41103504 7.49233941
2 298 6.64422655 27.79548531 8.16649121
1 299 5.97548163 28.98364763 6.26960229
2 299 6.17506145 26.12113485 5.22124679
1 300 9.29049420 26.44510762 4.96547914
2 300 9.66802441 27.98243474 2.35389761
1 301 5.92525742 28.39749680 6.05524318
2 301 7.33231334 27.49905356 3.38742461
1 302 10.21543618 34.35591505 4.27890129
2 302 8.79838489 32.86917189 1.96240291
1 303 2.68983567 33.54902058 3.98011514
2 303 0.79411455 32.42422062 2.01803645
1 304 5.88973047 23.36971512 4.80568965
2 304 7.87386785 23.33281544 7.18350022
1 305 3.22245401 30.43439979 9.48568643
2 305 2.33520387 30.50779078 6.74190856
1 306 5.22660778 32.44793090 6.31357057
2 306 4.53426826 35.34702945 7.09018685
1 307 4.97867399 35.54184333 3.15985264
2 307 5.62061050 32.89840747 4.39543991
1 308 3.68414705 30.57358612 8.21109870
2 308 4.18340929 28.97575504 10.79305936
1 309 4.23246846 32.66934842 3.05086715
2 309 5.22369780 30.36882717 4.57733494
1 310 8.77966238 30.85657293 7.31366745
2 310 9.79851826 31.78775809 4.58896429
1 311 8.33409566 35.26415676 4.82206709
2 311 10.02906412 37.06691535 3.11589323
1 312 6.45515903 36.07097134 5.29116743
2 312 7.47393061 34.37001831 7.52866812
1 313 2.05935051 38.86259052 8.70887763
2 313 4.47780807 36.91650495 8.69485803
1 314 7.68515768 35.65812406 8.77039644
2 314 9.40898694 38.02014524 9.66295603
1 315 6.94341630 38.01580411 7.13367607
2 315 4.68002304 40.00224971 6.53210208
1 316 8.44914369 39.12234441 2.18219129
2 316 6.67963207 38.34591975 4.45052626
1 317 10.05281998 34.83997500 2.45480180
2 317 9.40614135 32.18996603 3.79681057
1 318 7.61857310 42.79383707 10.47332507
2 318 5.58936057 40.57439757 10.48934213
1 319 3.54701764 43.66879760 5.80365705
2 319 2.51776135 45.37902733 3.65656776
1 320 8.66213878 38.64298081 9.65339680
2 320 5.63182522 38.50568331 10.06501829
1 321 5.09366792 31.31440653 1.93991685
2 321 7.76651211 32.29728418 2.95517935
1 322 8.49944612 43.79160476 10.31513164
2 322 10.50194301 43.72067790 8.05451250
1 323 5.88065078 40.63241011 2.88617248
2 323 4.63425696 42.39292674 5.00996751
1 324 7.40369890 39.19537223 9.20553116
2 324 4.62845419 39.69993206 9.94965767
1 325 5.72094228 42.20460583 5.21326462
2 325 7.69059779 43.56566517 7.24483356
1 326 8.92559570 41.03954232 4.66090585
2 326 7.61553052 42.96825698 6.39314820
1 327 9.70711024 43.24174237 3.73065276
2 327 9.68109380 44.51968769 1.05518948
1 328 7.38226469 48.24662758 4.55104056
2 328 8.81575136 47.60309178 2.06927393
1 329 9.36709704 41.23998429 6.44959856
2 329 11.61568067 43.00812131 7.29734654
1 330 3.87222274 39.04914651 7.34327943
2 330 3.63393971 41.48446186 5.76482390
1 331 7.01238499 46.95069959 1.68905962
2 331 8.34300062 45.52742688 3.96586333
1 332 8.74731189 48.87388493 4.13626734
2 332 10.57234348 47.73920549 2.16106308
1 333 7.93913871 47.08014037 4.32237742
2 333 5.86504799 49.24505584 5.00386467
1 334 4.03959986 44.18771427 2.76600606
2 334 1.22603591 44.04775989 3.73626776
1 335 5.57900894 45.02566233 8.96998024
2 335 5.10825507 45.38033271 5.90713024
1 336 10.01653936 50.86509211 2.95127303
2 336 9.13674954 53.62735709 2.08154284
1 337 7.18654401 52.90439813 9.85251615
2 337 8.02067055 55.41338628 8.47831527
1 338 2.35442809 48.93622050 8.27569819
2 338 5.01509578 49.02627750 9.69791818
1 339 4.35241127 45.87307829 6.69543900
2 339 4.76687308 48.77743634 7.06222502
1 340 5.20928430 46.48153730 10.75924143
2 340 5.03712488 48.28359954 8.39108908
1 341 3.78883608 57.67650867 6.62482225
2 341 3.78879445 54.78090716 6.86363240
1 342 5.22733932 55.72177600 4.72403724
2 342 8.09199457 55.33379692 3.75642513
1 343 5.98357610 57.47162752 7.31990341
2 343 6.44780425 54.60710221 8.27936468
1 344 10.90755441 50.74880703 8.03181992
2 344 11.22066872 53.25285746 9.82686676
1 345 6.96274321 51.84436692 9.09748713
2 345 9.96084717 51.69452865 9.57775944
1 346 5.37305902 49.78805852 3.87268719
2 346 6.51523729 52.16264849 5.21989360
1 347 10.04301977 59.05727269 4.15902652
2 347 9.62791541 61.60869184 2.42983242
1 348 5.24978730 56.62569336 8.09904528
2 348 8.21145370 56.08567114 7.89849311
1 349 6.72277473 54.80528907 5.01158490
2 349 5.96369787 56.52333881 2.63175517
1 350 10.32147100 57.18031524 8.93421077
2 350 9.50615357 54.20918729 9.11071845
1 351 13.32129406 57.43485979 1.43563033
2 351 15.37580283 55.10932738 1.72036515
1 352 9.35486299 59.02338922 5.98257545
2 352 9.58250184 61.87181209 7.15061550
1 353 7.60356778 55.31013421 8.03246800
2 353 6.99847233 57.14616284 5.75931645
1 354 3.37188212 60.94496271 9.43424780
2 354 4.60599005 58.44885561 8.12168385
1 355 1.26119404 54.67304478 9.38024289
2 355 2.37727961 52.04630970 9.66763285
1 356 5.88308180 57.92544207 1.53411487
2 356 5.94922406 59.28490277 4.34778945
1 357 5.01896233 64.41803143 3.89344053
2 357 6.20364466 63.83028682 1.18669955
1 358 7.98412545 70.26062574 4.54838788
2 358 8.56800164 68.68299210 7.00844922
1 359 7.68278623 65.49796785 6.71994721
2 359 9.03655881 65.88320160 9.37115552
1 360 5.59783947 68.24657996 8.60607711
2 360 6.79545805 66.24778099 10.46789504
1 361 5.25411718 63.33397572 4.90326784
2 361 4.50022131 64.20771170 7.59828005
1 362 8.36725161 62.36839320 3.12826520
2 362 10.70671323 62.49091602 5.10687264
1 363 11.22084003 66.33125739 4.06361073
2 363 8.79484692 66.43016033 2.43880241
1 364 4.44751677 61.91894325 5.49171398
2 364 5.58131220 61.83577227 8.23972070
1 365 7.17301995 64.10730796 8.76401510
2 365 8.48984823 61.80144994 10.17795228
1 366 8.36500478 62.19791512 4.41896942
2 366 10.06058479 64.38130246 3.18927131
1 367 3.14609440 68.77362814 4.95245011
2 367 0.20582702 67.87792772 5.39093286
1 368 9.83724362 69.52644852 8.51507306
2 368 7.98185884 71.78447178 7.28303805
1 369 6.69585435 71.09969885 7.99452909
2 369 8.29676081 69.91841616 10.27060232
1 370 7.22048117 64.85907476 6.52075060
2 370 9.12887543 66.90845560 5.76766462
1 371 7.37405301 71.24152837 1.66403066
2 371 6.70991433 74.14602008 2.58056409
1 372 3.31569729 71.39241532 7.19635542
2 372 4.98389883 71.19008146 4.66854598
1 373 2.78178984 74.92003333 9.05292862
2 373 5.64877075 75.62417559 9.63400657