ITEM: TIMESTEP
109120
ITEM: NUMBER OF ATOMS
6250
ITEM: BOX BOUNDS pp pp ff
0.0000000000000000e+00 7.2168784000000002e+01
0.0000000000000000e+00 7.2168784000000002e+01
0.0000000000000000e+00 1.2000000000000000e+01
ITEM: ATOMS type mol xu yu zu
1 1 3.57720219 11.10746307 6.15124373
3 3126 3.32364748 8.14140516 5.77021534
1 2 -5.03763864 -2.99124016 9.25408120
3 3127 -4.48400993 -5.32594888 7.26128154
1 3 6.50942000 -4.02524941 5.44471950
5 3128 5.24242422 -1.76440557 3.63070839
1 4 6.65018848 -4.05162398 8.53727061
3 3129 4.91289338 -2.83686086 6.57652406
1 5 2.73787801 10.59604231 3.59394960
7 3126 2.82275526 8.21431238 5.49946972
1 6 -3.25995973 6.59063150 2.40166070
3 3130 -0.26510239 7.33775900 2.66846122
1 7 0.28323552 1.72678120 6.41742685
5 3131 2.52664758 2.17573421 8.23283526
1 8 -0.18379900 7.06004513 3.64009734
6 3132 -0.83820198 10.03960400 3.02581094
1 9 0.25769286 2.71086864 5.27947728
6 3133 2.17451698 4.57085135 4.30583059
1 10 -0.52218600 2.86514764 5.69436673
3 3134 -2.82726364 3.87105725 7.14579347
1 11 0.41618951 -2.22406425 7.41007516
3 3135 0.02548023 -1.12436463 10.17639562
1 12 5.06834013 1.24888170 6.65247105
3 3136 8.02897845 0.83482957 6.45323584
1 13 4.37558067 4.81594967 7.71522827
6 3137 3.43441797 5.95535148 5.21812800
1 14 7.87508646 8.88397016 6.97551113
3 3138 8.54786487 5.97686695 7.83914545
1 15 2.68282017 11.81091734 3.16264490
5 3139 1.58459896 14.07678227 4.54127577
1 16 4.53123681 10.50451107 5.95405357
5 3126 3.66224181 7.71807869 5.11209553
1 17 7.36136171 3.44011979 3.94608887
6 3140 5.05725931 3.86531171 5.64705811
1 18 1.46691939 10.82262223 6.51988807
5 3126 2.76865823 8.30510627 5.39450755
1 19 3.48797236 4.65653288 5.93025645
5 3126 3.51366139 7.63976191 5.44908114
1 20 0.10829979 9.99382340 7.17658722
5 3141 -2.59164360 8.99970223 7.18132969
1 21 -0.98376839 8.00931274 5.16385314
5 3141 -3.02976398 7.90102612 7.40391975
1 22 0.08265166 12.84353988 1.55698494
2 3139 0.06343152 13.68215621 4.37337033
1 23 -3.12205860 5.73904595 9.82559994
3 3142 -5.09421847 3.74143194 10.83972792
1 24 3.24903208 10.96275296 6.53916758
3 3143 2.12577780 12.43988582 4.22391697
1 25 3.96618334 5.11174655 5.83293209
5 3126 3.25025468 8.02753932 5.26915010
1 26 -1.14546387 9.57473623 4.59862812
6 3144 -4.10368183 9.35983729 4.52619712
1 27 3.20188453 11.38121589 2.78297470
5 3145 3.26311999 9.29220053 4.68057670
1 28 -0.53212308 8.36910670 6.32435017
5 3146 -3.34029733 7.74297399 5.42296175
1 29 3.19453672 17.63415749 5.72327174
5 3147 2.72611970 17.91003448 2.81412477
1 30 1.91552913 24.43317963 4.87653907
7 3148 4.94670186 24.45108423 4.37344747
1 31 0.52280706 12.73535348 1.64071725
6 3132 -0.19040306 10.07094934 2.88235170
1 32 1.04592601 24.58409313 7.76493582
6 3149 0.44737399 21.81835687 7.45820293
1 33 -7.57709897 19.20276313 7.91451323
3 3150 -4.92592955 17.72107101 7.98755865
1 34 5.40394632 21.79186851 8.67188763
5 3151 7.54368608 21.17306959 6.66449028
1 35 -9.66809486 24.28554642 6.31529879
3 3152 -10.98523764 21.68698328 6.75525998
1 36 -0.93409688 11.10446862 4.15521015
3 3139 0.51233330 13.71280771 4.20950390
1 37 1.65935224 19.78330790 9.34951831
6 3149 0.34093715 20.95056293 7.09975244
1 38 -2.57430657 26.33016248 2.32200151
6 3153 -1.43785739 23.77780793 2.67900867
1 39 -0.24928615 21.56993801 7.39135931
5 3154 0.41450247 19.33822532 5.49227536
1 40 7.53808582 31.54032701 4.62687419
3 3155 10.34867152 31.57425821 5.52548321
1 41 -1.93437150 24.21697830 4.20491677
3 3156 -3.57268962 23.63352787 1.89000047
1 42 2.46622804 27.96381147 4.92721394
6 3157 3.21405907 26.69889216 7.49573898
1 43 5.67998748 23.08559922 6.49507653
5 3151 7.52551599 20.84076470 6.46011159
1 44 4.73809348 28.77005019 7.48590112
3 3158 2.41140848 30.48248374 6.63407405
1 45 -3.67471349 30.53480486 5.61513513
5 3159 -4.09475802 28.32590185 7.53263687
1 46 -1.46646534 36.25598894 2.91500648
6 3160 -1.12072984 34.85146364 5.58408181
1 47 10.37898946 21.57320272 9.65953448
7 3151 9.37245694 20.40544301 7.06910565
1 48 6.87901272 21.57652931 3.92317317
2 3148 5.00455115 23.81855968 4.46722487
1 49 -2.68704571 26.38960570 10.33468261
6 3161 0.03456748 25.27466226 9.85517976
1 50 1.43053158 1.60832798 6.29555911
6 3162 1.95117867 4.49129331 5.59880937
1 51 0.11368224 22.10709613 7.62460619
3 3163 2.60812969 22.59572629 9.26594730
1 52 7.08055920 28.10799600 7.53745130
5 3164 9.36996392 29.50256186 6.23920221
1 53 8.61080419 30.07095256 5.44858300
6 3165 10.12877160 27.69689993 4.04557493
1 54 7.71348756 32.29157936 6.23370245
5 3164 9.14341933 29.81664303 5.81561345
1 55 2.93361481 24.00460971 5.87455241
5 3148 5.31155336 24.25557691 4.08115301
1 56 8.14003476 29.90680428 6.00489325
6 3166 8.41930185 26.89217717 5.56378754
1 57 -0.69898134 34.05825104 4.87736451
3 3167 -0.77238020 36.72149876 5.94221734
1 58 9.88457668 35.46536461 7.80883565
3 3168 11.58739048 35.36256443 5.31036726
1 59 0.28070844 34.23866270 7.48291701
5 3167 -1.63300300 36.48932502 6.54860593
1 60 -1.96916810 26.98603684 5.14499420
5 3159 -4.02234215 28.07809904 7.00985557
1 61 -3.45095367 41.37839994 4.63279372
6 3169 -3.51789527 44.27647376 4.45866179
1 62 7.69081010 36.63775119 5.01564396
6 3170 5.18843388 36.68422330 6.54383453
1 63 -2.83066583 38.96979658 4.72985048
5 3171 -1.18232714 41.23266675 3.78408072
1 64 -1.84392486 33.72831162 4.86725862
5 3167 -1.98314556 36.50251362 6.32972711
1 65 5.47375798 29.41243431 7.04642655
5 3164 8.27244520 28.44145535 6.63624801
1 66 -7.74226475 37.19432899 5.52597495
6 3172 -5.67874878 39.28876826 4.59712463
1 67 -4.26610536 27.94754633 10.18044348
5 3173 -5.99537180 30.24581185 10.79026989
1 68 12.14244645 39.49461753 5.96330409
6 3174 9.37033181 40.16059382 5.36858364
1 69 8.91450843 41.64408403 5.63231647
3 3175 7.05847888 43.82421877 6.92181770
1 70 5.55635026 29.69892206 5.94727290
5 3164 8.02406242 28.05299601 6.41505851
1 71 0.38159999 45.88301536 1.24028182
5 3176 -0.89400803 43.40722611 2.35764052
1 72 2.98535416 43.98807202 7.60725859
6 3177 2.09643057 42.39933073 5.08321065
1 73 -4.81173556 38.66193737 5.74099071
6 3178 -5.90943570 40.98730517 7.55052847
1 74 8.90158418 36.95184378 5.76690821
6 3174 9.19169629 39.99255640 5.17068874
1 75 -0.00871265 39.41025979 7.19541016
5 3167 -1.57669734 36.88735929 6.91004794
1 76 6.57777760 48.62225183 6.71567466
6 3179 4.54645747 46.33177770 6.69359518
1 77 -6.06610397 55.15199477 6.44648489
2 3180 -5.66491854 52.59062573 7.97713069
1 78 2.15548395 41.48952242 8.23186079
6 3181 0.14449394 39.36075022 8.43172308
1 79 -2.02535758 40.59248627 6.59126784
6 3181 -0.04921039 39.29200747 8.33138293
1 80 -2.86506657 47.14118957 2.85693964
6 3182 0.04385925 46.83697285 2.12698229
1 81 1.00040561 43.01443532 5.42463087
5 3176 -0.53207270 42.96517024 2.73990246
1 82 -1.00682359 40.95026127 5.97519613
6 3177 1.61713362 41.81999691 5.27510163
1 83 5.34451767 48.92942165 10.30352375
3 3183 7.52335291 50.56107477 9.40923859
1 84 4.22663566 54.19530492 4.79229024
6 3184 2.41482650 51.88128237 5.38085266
1 85 1.25999670 43.27266121 6.11755833
6 3185 2.55098964 45.90790085 5.40315405
1 86 -5.65879083 53.18219270 10.12992845
3 3180 -4.76443225 52.84965690 7.27697460
1 87 3.57408887 50.42359739 3.78381791
6 3186 6.22249355 49.11525368 3.44025388
1 88 7.82349402 48.14908828 7.80395241
3 3183 7.83080127 50.55798831 9.53408973
1 89 -0.93186553 47.40990108 4.27721856
6 3187 -3.83546124 47.51681778 5.30503827
1 90 4.73690755 55.80409559 5.50014369
6 3188 2.97660231 53.40950533 4.63682401
1 91 -3.43516355 50.06967791 8.30578574
5 3189 -0.56503142 49.94523414 7.38318115
1 92 5.04243063 55.84037798 5.69400709
3 3190 7.92982106 54.99082425 5.06287965
1 93 1.32700777 52.36718194 7.71652906
6 3188 3.10770502 53.01469160 5.33640439
1 94 -2.08160737 55.36054470 6.89552697
6 3191 0.16350679 57.09424980 5.69613144
1 95 -11.30276957 43.75115584 4.04905499
5 3192 -9.94165151 46.47046794 3.83487729
1 96 3.17922374 58.73204146 8.46921827
5 3193 3.42523406 56.38089654 10.35941285
1 97 -11.16541990 53.61218925 8.22618948
5 3194 -12.20736647 51.93876015 5.98095221
1 98 5.24269703 47.07951343 4.82146120
5 3195 6.48732078 49.49807667 6.14020536
1 99 3.19361165 48.06304774 2.86129799
6 3182 0.60994585 46.66360669 2.63990194
1 100 7.52426956 52.02822417 5.38109533
3 3196 9.10041790 49.58866862 4.87891472
1 101 -7.50425639 71.63536529 4.15593098
6 3197 -8.12597686 68.75150120 4.76291122
1 102 0.71829857 55.07600367 4.41179826
5 3198 -0.53765225 56.99262815 2.59705870
1 103 -6.51386498 71.79595116 4.54944930
3 3199 -5.34540937 71.80489252 7.13557031
1 104 -3.86092959 59.69255235 4.80581545
6 3200 -4.85370164 62.17529488 3.45105847
1 105 -3.69028697 50.22798121 8.06629366
7 3180 -5.71582128 52.25582463 7.68128144
1 106 -0.63950953 60.16891385 4.39496264
5 3201 1.34909425 62.39867579 4.02354464
1 107 -0.79643306 64.91275332 9.47175518
3 3202 1.30398135 66.89776425 10.30843019
1 108 -1.44586394 60.31158629 5.05042230
6 3203 -2.66933187 57.65416756 4.11067052
1 109 1.91872271 61.83717276 9.40935152
5 3204 3.88169209 61.24716748 7.31032167
1 110 6.15295696 67.00916105 5.72017892
3 3205 3.88045258 66.61861625 3.73467134
1 111 6.10049638 53.22063623 5.20408084
6 3206 8.91021661 52.56767780 4.25891023
1 112 -4.94226970 53.47440852 2.57765869
5 3207 -2.70264512 51.51807733 3.26174676
1 113 5.42821280 58.06863248 4.83114811
3 3208 3.00343820 59.48780449 4.75043214
1 114 1.24010178 61.79750192 9.45972021
6 3209 -0.37720544 62.29050431 7.00427082
1 115 -3.15430297 58.68508196 3.12493202
5 3198 -0.89453224 56.95560129 2.13666557
1 116 1.00471306 67.76706533 4.98286859
3 3210 1.20633401 67.11732779 7.97660249
1 117 2.23442922 63.89698618 4.14614001
3 3205 3.35194575 66.68281657 3.74118611
1 118 9.96528319 57.88312314 7.71180450
5 3211 12.84005413 57.34563976 8.40321034
1 119 -1.71543048 62.09511822 1.71529894
5 3212 -2.90169163 64.58754385 2.88410668
1 120 4.51145837 61.38149949 6.42784431
3 3213 4.31315947 60.46065775 9.04710416
1 121 3.37392525 76.11252143 6.73281215
6 3133 2.00706343 77.43730345 4.45280963
1 122 3.00134070 68.80994007 9.25394665
3 3129 4.22931997 69.52622610 6.70409190
1 123 2.04715744 63.55906437 4.47525375
6 3214 2.31412651 60.47831847 4.31895736
1 124 -1.57039277 65.57483329 6.00060544
5 3215 -3.10655194 63.60596364 4.46051473
1 125 4.71527412 74.29499662 8.20000222
3 3216 5.84264567 75.86588209 10.44598401
1 126 2.40298557 -8.18354530 6.02014852
5 3217 3.45732832 -7.85047969 3.17803345
1 127 2.56162282 1.44124589 5.97886748
6 3140 4.89620647 3.41554209 6.03117697
1 128 -0.97912821 3.91822119 6.08025978
5 3218 1.84914064 3.81055386 5.20228610
1 129 -1.31123422 -9.84239530 3.03611945
3 3219 -1.79965222 -7.42965542 1.26273610
1 130 3.44871117 2.62035362 6.37040507
6 3220 2.26837445 3.74840024 3.82253255
1 131 7.11614912 12.82320848 7.81850952
6 3221 9.85860989 12.17709383 6.94329539
1 132 8.11505003 -0.57502596 8.53555579
5 3222 5.54380713 -0.14708916 6.88569019
1 133 7.44122631 -2.45600576 7.86208139
3 3223 8.28132644 -3.87899655 10.41864693
1 134 3.77905979 2.14075912 3.35928780
6 3224 1.52940573 0.35514540 3.37992827
1 135 5.13391160 8.10426535 7.14544758
7 3126 2.87266501 8.21592409 5.25922042
1 136 11.47476819 7.40494754 3.07228123
5 3225 8.74158215 7.19381280 4.44376754
1 137 4.34375992 3.26892458 6.82949863
5 3218 1.90942232 3.38391097 5.17600040
1 138 2.65261743 11.59706045 4.41584991
5 3139 1.13036436 13.89698672 5.17090571
1 139 -1.12614613 1.05038919 7.41502982
6 3226 -2.89378891 2.34295365 9.43002879
1 140 7.34279137 4.42326274 3.69969797
6 3140 5.25109539 3.83073470 5.96189680
1 141 11.55101386 7.74331056 6.69345749
6 3227 14.12428789 9.15859847 5.83196224
1 142 0.70591837 9.47120876 6.74258687
3 3126 3.13804529 7.70590970 5.98754074
1 143 -4.47107431 5.32263680 8.34677602
6 3226 -3.22573662 2.80085009 9.53567283
1 144 11.48204457 15.82944433 6.00447988
5 3228 11.47747379 18.07190383 4.09374867
1 145 10.83423248 15.79002822 6.19669970
7 3229 8.11135977 15.44517973 4.88347494
1 146 6.83213844 17.83587515 3.51376026
7 3229 8.11106472 15.22290407 4.45969682
1 147 10.69759327 14.92711876 5.38391500
6 3230 9.44153079 13.32442718 3.12351708
1 148 5.22058577 15.46787343 4.33131165
7 3229 8.17446908 15.21675453 4.22647253
1 149 9.48106777 10.64276511 5.66641864
5 3231 11.86484183 11.52544227 7.04730470
1 150 5.93764371 13.37586920 2.78868629
6 3230 8.93688414 13.27445386 3.30790357
1 151 2.39814606 23.96593936 6.14875966
6 3149 0.62665224 21.73405768 6.67551283
1 152 -0.43649930 23.39201686 7.35886315
6 3161 0.54514746 25.24389450 9.50999834
1 153 -6.26141019 16.47115671 5.18602253
5 3232 -5.72145160 19.26887206 4.90418143
1 154 -8.23910771 19.74228489 7.85245182
3 3152 -10.28719712 21.64556473 7.30739494
1 155 3.15667753 15.77218066 3.33163566
3 3143 2.18566197 13.11722150 4.49447260
1 156 -2.34492528 22.94657024 7.59551495
6 3149 0.32916438 21.50809132 7.16744446
1 157 -0.16112201 22.22798112 3.52212226
5 3233 1.67593610 23.63487410 5.36418090
1 158 2.88062003 22.07384716 5.33420597
7 3148 5.06320560 23.98506555 4.66064755
1 159 -3.59622295 16.67640067 4.23225276
5 3232 -4.81505720 19.36065236 4.81112628
1 160 1.13491499 24.95313194 7.46590169
6 3234 3.05781761 25.86276146 5.35739106
1 161 4.06509939 15.41088673 5.96335853
3 3235 5.30756578 16.65892164 8.54870116
1 162 2.79892550 21.45967088 4.83238667
2 3154 0.68144170 19.42459841 5.49526661
1 163 5.29852678 24.36368176 9.15201618
6 3157 3.32793988 26.45299274 8.38541677
1 164 8.36520004 17.44443647 8.74543730
3 3235 5.83773594 15.92046976 8.47913658
1 165 10.78360452 16.00211340 4.20864261
6 3230 9.08404364 13.84731302 3.08013425
1 166 4.76922663 24.21554581 8.32123253
6 3236 6.89634402 25.68249722 6.64277068
1 167 7.16693949 21.91779358 3.69949729
5 3148 5.50281138 23.97802565 5.17821264
1 168 -3.51338849 17.29717690 5.50884217
5 3154 -1.23715280 19.14213177 5.17760634
1 169 6.22319630 27.58774511 5.25156538
6 3237 8.52852380 29.38833511 5.15824358
1 170 8.96804785 25.10257268 6.70671199
2 3164 8.48061852 28.05126400 7.35105402
1 171 0.30310463 42.96576727 1.69929722
5 3171 -1.23401519 41.29963203 3.71460747
1 172 11.90565632 28.04278991 3.69025634
6 3238 14.72409558 26.97373304 3.99194201
1 173 9.94556955 23.73547219 5.15944523
6 3166 8.59718422 26.26992942 6.12794390
1 174 12.08739088 27.12727996 5.67920114
6 3238 14.57949349 26.73811794 3.86269630
1 175 5.00089214 28.68080479 7.53134294
3 3164 7.53006265 27.23436194 7.91573618
1 176 2.42393465 28.55294316 4.74577237
5 3239 0.25024566 30.52643855 4.71773334
1 177 8.90643274 25.87777284 3.87529248
6 3236 7.11235572 25.29084284 6.27002588
1 178 1.51997233 32.97240385 6.25333323
6 3160 -0.55443480 35.16872422 6.06773239
1 179 -2.22054939 31.16958900 3.71708982
2 3240 -4.20839528 31.69166971 5.83953264
1 180 8.39776125 22.99271154 4.37147929
5 3148 5.64625692 24.18956693 4.55763101
1 181 11.69654685 26.39972572 5.45329108
6 3166 8.88486767 26.96330201 5.99356652
1 182 2.81191127 24.71269245 8.55221914
3 3163 2.74813017 21.82785660 9.24489662
1 183 -3.14913713 36.12872921 8.73915592
3 3241 -4.79610976 33.71398040 9.08500809
1 184 12.48749908 32.51718044 5.86808621
7 3168 11.99517176 35.23864562 4.64649967
1 185 0.90095327 34.08001594 7.09999673
3 3242 3.24551244 33.31138333 5.20848305
1 186 -1.26832336 35.69083121 9.73260951
6 3243 0.48258227 38.07016494 9.59302243
1 187 0.54979686 36.07563367 8.73342689
5 3167 -0.99774370 36.61204727 6.24524037
1 188 4.75395240 29.29803296 7.28040909
5 3244 1.76379958 28.54985237 7.99993699
1 189 3.52163183 33.07496779 6.30602665
6 3245 2.79581176 30.19943253 7.09805510
1 190 13.61719530 32.54102677 5.95810076
5 3168 11.64185353 34.80460378 6.36740273
1 191 7.29220904 31.48777485 6.44516968
5 3164 8.40063230 28.82562678 5.94896699
1 192 4.59199688 37.94558484 9.72117694
6 3246 6.61816647 37.24919561 7.58462696
1 193 -1.51840289 40.81007631 6.30008937
6 3181 0.26592077 39.07090240 8.11947527
1 194 7.68913959 34.71186243 6.82301490
6 3170 5.03048250 36.14236763 6.85696538
1 195 3.81407164 43.71128628 6.78858219
5 3247 2.07620240 41.30474707 7.01396378
1 196 -5.09104913 42.97337698 4.80931459
6 3178 -5.53944467 41.62087125 7.48911172
1 197 -3.43493813 45.51747504 3.21569982
3 3248 -6.35277095 46.30310339 3.80405773
1 198 2.73743588 43.74224066 8.34580262
6 3249 5.29611013 42.94431674 9.69203438
1 199 2.45236685 36.58439765 8.38514145
6 3170 4.82980261 36.48692103 6.66945673
1 200 10.41507449 38.63190253 6.29885594
3 3250 12.80022991 40.10982241 5.22527390
1 201 1.68272833 43.00245444 7.37837941
3 3251 0.27551083 40.49443969 6.90773665
1 202 16.25796027 47.85722956 5.46351281
6 3252 14.62091837 50.32728071 5.14925317
1 203 3.05236536 50.57234054 4.21516602
6 3253 3.28216008 53.37272204 5.00833259
1 204 4.27880306 43.80646545 7.34056856
6 3249 5.58049035 42.92865141 9.89216797
1 205 -1.25786483 48.52945231 3.89965086
7 3254 -0.15517901 49.72788082 6.41455906
1 206 6.31134861 43.46325577 6.71405698
6 3255 6.19526393 40.35023105 5.98893648
1 207 4.45567220 42.30927589 6.91203608
6 3255 6.23576770 40.07191763 6.17896822
1 208 -5.04939090 43.14277992 4.45295149
3 3248 -6.47651704 45.57257277 3.62888957
1 209 0.84295268 42.94975506 1.56859137
3 3256 3.74753183 42.54065710 1.64328195
1 210 8.56297759 37.01800034 5.34295298
6 3174 9.14740107 39.77153616 4.47164100
1 211 -0.89632483 53.38944267 5.98665399
6 3184 1.64279311 52.34627235 4.76579026
1 212 0.93172840 53.10253362 5.22807100
3 3257 -0.37186531 50.39350830 4.95973750
1 213 1.63159417 59.00513260 3.58188038
6 3191 -0.04178617 57.25043956 5.26017162
1 214 7.10835217 48.93167016 7.19393223
3 3196 9.54959663 49.01120951 5.32640862
1 215 4.05528780 43.00061134 6.89045132
6 3258 4.22000628 45.63325769 8.49145801
1 216 2.95598331 53.95081425 7.75758665
6 3253 3.14436197 53.57302114 4.87383757
1 217 5.51419873 53.73929098 5.12549085
7 3259 8.02537497 55.46690858 4.92179601
1 218 -8.34269572 53.83229793 10.70486254
5 3260 -8.76420539 56.27804590 9.02893453
1 219 2.23358608 56.12409369 7.75904211
6 3261 5.19768769 55.68221893 8.41102086
1 220 6.76240804 52.53965475 3.23633214
6 3186 6.60824257 49.62723637 3.64637349
1 221 -1.03164622 60.22012843 5.21747593
6 3191 0.17618774 57.44402293 5.66409276
1 222 10.80977654 54.40516045 6.91453382
2 3259 8.68008602 55.72861778 5.29994715
1 223 2.06977855 48.15938411 7.25973022
5 3189 -0.01078722 50.36022422 7.56415543
1 224 -3.45157033 58.97822300 5.11666364
6 3262 -1.61104613 56.90559416 6.06944819
1 225 6.04497455 64.20171434 4.42800381
6 3263 5.34189582 67.04256019 4.94133139
1 226 -6.80388145 62.96464464 5.53756638
6 3264 -3.82347447 63.39268048 6.07705932
1 227 5.88543859 63.22255070 5.77174143
5 3204 4.40534753 61.14831145 7.48708237
1 228 -1.68713163 60.42270313 4.74089974
6 3203 -2.14744263 57.56927109 3.95810083
1 229 3.20963406 59.33913506 7.72951040
3 3208 2.61369767 59.22717923 4.71690845
1 230 0.30512429 65.30619564 2.54049253
5 3217 3.08144406 64.33619841 2.69442372
1 231 9.75666085 63.53643732 4.15279948
3 3265 8.91804602 66.09649678 5.43217793
1 232 -12.21355546 60.87087099 8.97148510
6 3266 -9.51890877 59.34867359 9.71371282
1 233 6.44018551 63.12199579 4.51165000
6 3267 4.55168676 60.99062866 4.09876577
1 234 -5.63909139 63.58866224 1.23421608
5 3212 -3.29158313 64.85812099 2.72915658
1 235 12.40197169 57.11715135 10.54329955
6 3268 11.30525217 55.86210552 7.95659397
1 236 -1.64012393 59.77200163 4.18059884
5 3198 -0.88419698 57.62967089 2.12438709
1 237 -0.06671404 59.74518663 4.02336919
6 3203 -1.90762633 57.45176621 3.50222993
1 238 3.15312202 63.18296502 1.89962129
5 3201 1.63925515 62.96944760 4.41961433
1 239 -4.09572131 66.24743296 4.35685990
6 3264 -3.66223114 63.94948063 6.33432037
1 240 3.39569689 60.41793255 6.15535412
3 3269 4.96546071 62.97227728 6.50971416
1 241 2.36972862 59.19066338 3.67945567
6 3267 4.99202212 60.37578170 4.03607367
1 242 2.87927023 75.36564907 4.16463507
6 3137 3.82419761 78.26398663 4.70607826
1 243 7.47447571 63.47976916 4.67419651
3 3270 4.89492303 64.82818867 5.09211571
1 244 12.80058336 69.99743844 8.20122187
5 3271 15.17024047 68.15697349 8.57400462
1 245 15.69895691 60.98891385 7.17581219
3 3272 18.12291557 61.56051574 5.47729098
1 246 -3.31324110 65.57746260 4.03684074
3 3219 -2.05837842 64.88452569 1.49329828
1 247 -0.81109682 69.86218387 4.31080560
6 3224 1.28041545 71.84785684 3.73804460
1 248 1.89589420 75.47122720 3.45070893
6 3273 -0.71084313 77.04924126 3.82194666
1 249 -1.57409697 61.25946886 3.03165391
3 3274 -0.33345984 58.51385441 2.94029156
1 250 4.05622955 75.11775891 3.19672615
6 3162 2.41561983 76.47164854 5.44390988
1 251 14.99703668 4.23659344 7.69919847
7 3275 15.78671565 1.38611370 7.93767890
1 252 14.82216836 1.02434092 10.55281963
7 3275 16.46451210 1.45231694 8.00884450
1 253 13.61159990 2.14412080 8.21655758
6 3276 10.90560472 0.84901031 8.60501672
1 254 3.59457805 -7.54408584 1.86554438
3 3277 1.86677437 -9.83963204 1.86313260
1 255 16.20058815 -14.41246850 8.94833153
5 3211 13.49117706 -14.87321363 8.02760992
1 256 19.87469982 9.36218558 5.10077389
6 3278 21.04542173 6.53301943 5.31929846
1 257 3.45563060 4.44249962 6.28970972
5 3131 2.50183760 3.32046126 9.05314978
1 258 -3.40845500 -6.62538326 4.66994041
3 3127 -4.66102277 -5.82498065 7.18044591
1 259 12.76556410 -2.48926691 7.25448068
6 3279 12.82913262 0.10959724 5.90320260
1 260 14.75009497 -2.39648869 5.67337299
6 3279 12.94114874 -0.02679650 5.41713525
1 261 0.44803883 10.10855583 6.11243336
5 3126 2.41601740 8.13625453 4.88862395
1 262 -2.00162489 15.36607142 2.75239600
3 3280 -4.78493004 14.46407001 3.61906205
1 263 1.59433992 0.44817890 4.04368651
5 3218 1.73458124 3.03627877 5.43095722
1 264 3.79329837 -2.65942424 7.14175705
3 3281 3.15995668 -0.04687212 8.48225936
1 265 7.33554691 14.02499713 7.79165847
5 3229 8.13567668 15.66290061 5.32560233
1 266 0.21942136 10.69818994 5.85340639
2 3139 0.18849403 13.72360321 5.17136892
1 267 8.24553158 17.77640745 3.05699767
5 3228 11.26881659 17.95083105 3.59670268
1 268 10.75122468 14.62035332 6.70988709
5 3282 12.25562708 17.31858180 7.10955115
1 269 5.55074658 5.92892247 6.25000738
2 3126 3.52890527 7.81106303 5.19485505
1 270 16.77015633 11.48240812 5.50373452
5 3283 19.53893107 10.80895117 6.28512976
1 271 15.51268183 18.14201819 6.61764000
7 3282 12.81644946 17.10403475 7.08909834
1 272 9.26820497 12.43697007 5.74718601
5 3231 12.03899383 12.07740782 6.88850738
1 273 16.27809944 18.39165731 6.38817135
5 3284 17.73544382 20.96987255 6.70971336
1 274 12.65864214 12.08523956 7.04295164
5 3285 13.44382317 15.15703958 7.05799262
1 275 -5.83978594 7.31642955 3.15532707
5 3146 -3.89602091 8.26416054 5.35877187
1 276 2.87579309 11.61735308 4.77492975
7 3139 0.79230103 13.84888586 4.30523990
1 277 4.74824193 15.80922249 3.80675611
3 3286 3.28177118 18.48816249 3.42153010
1 278 -0.52124323 10.45911348 4.30583604
5 3145 2.42855029 9.77162916 4.85266631
1 279 4.92144138 17.69209099 4.70174186
5 3147 2.81861735 18.22466680 2.54305009
1 280 3.26620016 11.59981727 2.82784087
3 3287 2.31321879 14.26950141 1.78362382
1 281 16.64646056 33.91650416 4.60476340
6 3288 14.29521570 31.94281906 4.51824281
1 282 15.38631078 18.11715615 8.01259515
7 3282 12.56576464 17.04072361 7.51053161
1 283 -2.90271940 20.59653409 3.03602345
6 3153 -1.57329691 23.22488992 3.32445641
1 284 5.36586268 13.43907859 2.66688694
3 3287 3.03326750 14.83340080 1.60985373
1 285 2.27269402 10.72982755 2.55086233
6 3132 -0.56505877 9.75663081 2.94088401
1 286 3.53581218 15.11342861 5.52425470
2 3139 0.92927847 14.34999317 4.29429418
1 287 -7.50757793 21.12762789 3.73008882
5 3232 -5.47618284 19.31662633 4.85567043
1 288 10.88780699 15.24567554 5.37604169
5 3285 13.50446331 15.53382937 6.64168803
1 289 2.49659953 24.94146699 2.33412193
7 3148 4.85732799 23.97392679 3.77955417
1 290 9.22598246 23.74658610 5.30143828
5 3151 7.99719537 21.53429127 6.94106534
1 291 4.90710254 22.04783953 8.41612540
5 3289 5.15570336 24.98869183 8.74791883
1 292 0.94291924 24.86190937 4.40496483
6 3153 -1.10475848 23.52508730 2.94629586
1 293 8.66867687 33.77072481 3.82147176
6 3290 10.98027027 33.92766972 5.83554287
1 294 11.41967881 24.80145757 5.35381124
6 3165 10.81882998 27.20155315 3.77422805
1 295 11.14745762 24.51732291 4.86452272
6 3165 10.07991538 27.15861604 3.95378962
1 296 14.36055535 40.13658007 3.41132573
5 3291 16.10526521 37.65900913 3.84052249
1 297 -0.58330504 36.57950931 2.91203504
5 3292 2.22980591 37.18014654 3.38330108
1 298 9.73185748 23.34832917 5.71269739
7 3151 8.77125481 20.70668702 6.98563466
1 299 9.21425088 26.48638909 3.51844163
6 3237 9.00482541 29.26305970 4.16561227
1 300 9.31666760 27.88718442 4.99446679
3 3155 10.45127980 30.68659415 5.44009200
1 301 9.32785016 27.21996609 4.81033604
6 3236 7.55074252 25.82512052 6.65726699
1 302 9.92118480 28.86038019 7.89619029
5 3293 12.77819406 29.26615725 6.95970555
1 303 -1.29227582 40.24993279 5.47125771
7 3167 -1.20569133 37.22810481 6.01951264
1 304 15.83208094 18.29696507 8.14185242
2 3284 17.88123925 20.20899364 7.10166028
1 305 1.09842797 38.64442729 6.58940174
6 3243 0.40803436 38.15786434 9.58781565
1 306 1.16140976 34.03495409 4.06444014
6 3160 -0.63325597 35.64610422 5.86367053
1 307 -1.40179658 27.94141744 3.07052425
6 3294 -3.23544457 25.66765376 3.73595117
1 308 11.77031640 29.95210480 3.50681819
5 3164 9.27158658 29.63778275 5.37213464
1 309 8.47387295 36.51994853 6.08266977
6 3295 6.34046158 35.51896650 4.29351101
1 310 -1.01364044 30.13336084 7.72402936
5 3244 1.28161738 28.32738707 8.32473237
1 311 12.08812932 30.24447870 2.93311884
6 3288 14.30467987 31.65280804 4.46289291
1 312 9.62703262 38.65814924 6.42464257
6 3246 7.23555194 37.42621140 7.79883253
1 313 4.76154402 46.48178824 7.96373383
3 3175 6.89256276 44.72556647 6.78561281
1 314 4.21491616 40.44697222 8.40286725
6 3249 5.13525763 42.60278720 10.22462866
1 315 4.23600021 42.36719547 5.64950298
6 3255 6.04186504 40.00353474 5.79021519
1 316 -1.04777616 40.80148055 5.23392851
6 3177 1.85738433 41.70602190 5.10214726
1 317 16.02084709 28.54423804 5.64658137
3 3296 18.66855964 28.64511009 6.92302648
1 318 10.82079542 37.89258525 5.82799870
7 3168 11.65733315 35.12094673 5.22749941
1 319 0.61769413 52.20932676 6.58221478
6 3188 2.84498352 53.49762862 5.02257080
1 320 9.30631527 41.10461700 5.61166503
3 3250 12.03415197 40.59251922 4.83544094
1 321 13.94944363 39.27797694 1.82700139
7 3291 15.72301512 38.30391441 4.12627242
1 322 16.55825606 47.92454945 9.92252153
6 3297 16.19760080 46.28885233 7.52598004
1 323 9.11484398 33.49257629 5.13668092
3 3168 11.26571960 35.47157227 4.76762829
1 324 3.89019718 37.81899518 4.79936832
6 3295 6.14001073 35.90420357 4.05707126
1 325 5.85969938 42.63029422 4.00671329
6 3255 6.62518436 40.08066644 5.59648773
1 326 3.63544365 40.42910143 7.56669460
6 3177 2.03580576 41.69677780 5.36065798
1 327 4.42879639 46.12618544 2.96195225
3 3298 7.15549460 47.32373156 3.60217710
1 328 5.14259644 53.21881625 5.39454595
6 3184 2.24700932 52.36072444 5.52443749
1 329 9.10871175 37.14650345 8.52320735
3 3299 11.76198872 38.22150603 9.41695520
1 330 11.13241940 32.62040046 2.67261346
3 3300 9.10274654 34.82031787 1.72422193
1 331 3.69361168 41.46240479 6.12528959
3 3301 3.42015323 44.30892966 6.95126506
1 332 4.34333210 46.27263595 8.05130842
6 3185 3.11579100 45.78247413 5.48568704
1 333 17.91246128 50.24975252 1.80414543
6 3302 19.65252069 47.98596943 2.28337823
1 334 1.32617025 46.60321945 8.18952920
6 3179 4.11952131 46.31481633 6.96441341
1 335 6.47047157 44.52259655 6.95498289
6 3258 4.56939001 45.95130035 8.72962568
1 336 8.83149141 58.31773960 7.72904817
3 3259 9.10836099 56.53552477 5.33248876
1 337 5.12542982 53.51366673 5.28928598
7 3259 7.55645736 55.36875552 4.97891607
1 338 2.33757702 43.84114406 7.05872119
6 3258 3.93171712 45.82608050 8.67291708
1 339 4.98241432 47.49843474 6.61638533
3 3303 4.54445681 44.61465998 7.46436652
1 340 5.34369900 47.99339011 10.73062865
6 3258 3.77160407 46.05235817 8.99407601
1 341 1.02651585 54.69386496 4.02686920
6 3184 1.85286759 52.14966811 5.39508624
1 342 6.88937852 53.15682646 3.23940184
7 3259 7.48812498 55.83005932 4.39819472
1 343 1.53965436 57.98361680 8.66435140
5 3193 3.24373400 56.44353451 10.70062313
1 344 -1.86809395 47.35422901 3.82522108
6 3304 -4.67242345 46.96780592 5.00092435
1 345 12.39801205 56.31616347 4.63028510
3 3305 14.36412839 54.06650693 5.29868409
1 346 -2.80411783 45.16260498 3.34751323
6 3182 -0.03442169 46.56093864 3.16135888
1 347 7.50451208 52.36956829 4.76723584
5 3259 8.39793653 55.15778037 5.16674844
1 348 11.24340130 54.81929327 6.88419938
5 3305 14.08894236 54.58543556 5.49201880
1 349 11.73341482 57.36348171 6.87150816
3 3259 9.08780996 56.42250358 5.78029404
1 350 4.97016558 46.43684246 4.62233576
3 3301 3.64066168 45.03091258 7.05869209
1 351 15.87155878 56.92442800 3.03297988
5 3305 14.55257854 54.71640686 4.62798341
1 352 4.53608685 54.93646482 5.45190074
6 3261 5.49166299 55.77354064 8.03885094
1 353 10.61288197 55.31660530 6.49160263
5 3259 8.04116137 55.41325051 5.23070220
1 354 6.17488683 55.96028704 8.92735012
5 3193 3.62486333 56.35728539 10.61590012
1 355 -0.77859583 53.30147394 6.62428500
5 3189 -0.48863197 50.33397203 7.16375907
1 356 6.80893841 55.90470461 8.41898650
5 3259 7.56718065 55.81824880 5.47884250
1 357 3.90429416 63.67090120 4.79401092
5 3204 4.18787207 61.61176795 7.05911207
1 358 3.70443972 68.76176831 7.34913535
6 3306 3.54466416 70.13820504 4.75616023
1 359 11.62968740 61.27299862 5.99554368
5 3307 9.83486869 63.74000087 6.00284767
1 360 -0.04470707 65.28558548 7.46061115
6 3209 -0.54823159 62.56197544 6.35336131
1 361 8.60225308 69.32475041 6.45440300
3 3265 9.00160220 66.38513370 6.09021872
1 362 6.56548153 66.53863805 5.97260677
7 3265 9.41703312 66.67961629 5.29708950
1 363 3.19692378 62.72175085 2.18386273
6 3267 4.97686343 60.65462764 3.52990193
1 364 2.92792695 65.11061503 5.45854897
5 3201 1.16574484 62.93914028 4.31198530
1 365 2.97177561 65.38714896 5.77143513
3 3269 5.03119878 63.65605452 7.00466569
1 366 -8.32602265 66.91670126 2.14594096