LAMMPS data file

160 atoms
80 bonds

2 atom types
1 bond types

0.0 25.819889 xlo xhi
0.0 25.819889 ylo yhi
0.0 22.000000 zlo zhi

Masses

1 1
2 1

Atoms

1 1 1 0.000000000000000 0.000000000000000 12.000000000000000
2 1 2 2.000000000000000 2.000000000000000 13.000000000000000
3 2 1 0.000000000000000 0.000000000000000 14.000000000000000
4 2 2 2.000000000000000 2.000000000000000 15.000000000000000
5 3 1 0.000000000000000 0.000000000000000 16.000000000000000
6 3 2 2.000000000000000 2.000000000000000 17.000000000000000
7 4 1 0.000000000000000 0.000000000000000 18.000000000000000
8 4 2 2.000000000000000 2.000000000000000 19.000000000000000
9 5 1 0.000000000000000 0.000000000000000 20.000000000000000
10 5 2 2.000000000000000 2.000000000000000 21.000000000000000
11 6 1 0.000000000000000 6.454972243679029 12.000000000000000
12 6 2 2.000000000000000 8.454972243679029 13.000000000000000
13 7 1 0.000000000000000 6.454972243679029 14.000000000000000
14 7 2 2.000000000000000 8.454972243679029 15.000000000000000
15 8 1 0.000000000000000 6.454972243679029 16.000000000000000
16 8 2 2.000000000000000 8.454972243679029 17.000000000000000
17 9 1 0.000000000000000 6.454972243679029 18.000000000000000
18 9 2 2.000000000000000 8.454972243679029 19.000000000000000
19 10 1 0.000000000000000 6.454972243679029 20.000000000000000
20 10 2 2.000000000000000 8.454972243679029 21.000000000000000
21 11 1 0.000000000000000 12.909944487358057 12.000000000000000
22 11 2 2.000000000000000 14.909944487358057 13.000000000000000
23 12 1 0.000000000000000 12.909944487358057 14.000000000000000
24 12 2 2.000000000000000 14.909944487358057 15.000000000000000
25 13 1 0.000000000000000 12.909944487358057 16.000000000000000
26 13 2 2.000000000000000 14.909944487358057 17.000000000000000
27 14 1 0.000000000000000 12.909944487358057 18.000000000000000
28 14 2 2.000000000000000 14.909944487358057 19.000000000000000
29 15 1 0.000000000000000 12.909944487358057 20.000000000000000
30 15 2 2.000000000000000 14.909944487358057 21.000000000000000
31 16 1 0.000000000000000 19.364916731037084 12.000000000000000
32 16 2 2.000000000000000 21.364916731037084 13.000000000000000
33 17 1 0.000000000000000 19.364916731037084 14.000000000000000
34 17 2 2.000000000000000 21.364916731037084 15.000000000000000
35 18 1 0.000000000000000 19.364916731037084 16.000000000000000
36 18 2 2.000000000000000 21.364916731037084 17.000000000000000
37 19 1 0.000000000000000 19.364916731037084 18.000000000000000
38 19 2 2.000000000000000 21.364916731037084 19.000000000000000
39 20 1 0.000000000000000 19.364916731037084 20.000000000000000
40 20 2 2.000000000000000 21.364916731037084 21.000000000000000
41 21 1 6.454972243679029 0.000000000000000 12.000000000000000
42 21 2 8.454972243679029 2.000000000000000 13.000000000000000
43 22 1 6.454972243679029 0.000000000000000 14.000000000000000
44 22 2 8.454972243679029 2.000000000000000 15.000000000000000
45 23 1 6.454972243679029 0.000000000000000 16.000000000000000
46 23 2 8.454972243679029 2.000000000000000 17.000000000000000
47 24 1 6.454972243679029 0.000000000000000 18.000000000000000
48 24 2 8.454972243679029 2.000000000000000 19.000000000000000
49 25 1 6.454972243679029 0.000000000000000 20.000000000000000
50 25 2 8.454972243679029 2.000000000000000 21.000000000000000
51 26 1 6.454972243679029 6.454972243679029 12.000000000000000
52 26 2 8.454972243679029 8.454972243679029 13.000000000000000
53 27 1 6.454972243679029 6.454972243679029 14.000000000000000
54 27 2 8.454972243679029 8.454972243679029 15.000000000000000
55 28 1 6.454972243679029 6.454972243679029 16.000000000000000
56 28 2 8.454972243679029 8.454972243679029 17.000000000000000
57 29 1 6.454972243679029 6.454972243679029 18.000000000000000
58 29 2 8.454972243679029 8.454972243679029 19.000000000000000
59 30 1 6.454972243679029 6.454972243679029 20.000000000000000
60 30 2 8.454972243679029 8.454972243679029 21.000000000000000
61 31 1 6.454972243679029 12.909944487358057 12.000000000000000
62 31 2 8.454972243679029 14.909944487358057 13.000000000000000
63 32 1 6.454972243679029 12.909944487358057 14.000000000000000
64 32 2 8.454972243679029 14.909944487358057 15.000000000000000
65 33 1 6.454972243679029 12.909944487358057 16.000000000000000
66 33 2 8.454972243679029 14.909944487358057 17.000000000000000
67 34 1 6.454972243679029 12.909944487358057 18.000000000000000
68 34 2 8.454972243679029 14.909944487358057 19.000000000000000
69 35 1 6.454972243679029 12.909944487358057 20.000000000000000
70 35 2 8.454972243679029 14.909944487358057 21.000000000000000
71 36 1 6.454972243679029 19.364916731037084 12.000000000000000
72 36 2 8.454972243679029 21.364916731037084 13.000000000000000
73 37 1 6.454972243679029 19.364916731037084 14.000000000000000
74 37 2 8.454972243679029 21.364916731037084 15.000000000000000
75 38 1 6.454972243679029 19.364916731037084 16.000000000000000
76 38 2 8.454972243679029 21.364916731037084 17.000000000000000
77 39 1 6.454972243679029 19.364916731037084 18.000000000000000
78 39 2 8.454972243679029 21.364916731037084 19.000000000000000
79 40 1 6.454972243679029 19.364916731037084 20.000000000000000
80 40 2 8.454972243679029 21.364916731037084 21.000000000000000
81 41 1 12.909944487358057 0.000000000000000 12.000000000000000
82 41 2 14.909944487358057 2.000000000000000 13.000000000000000
83 42 1 12.909944487358057 0.000000000000000 14.000000000000000
84 42 2 14.909944487358057 2.000000000000000 15.000000000000000
85 43 1 12.909944487358057 0.000000000000000 16.000000000000000
86 43 2 14.909944487358057 2.000000000000000 17.000000000000000
87 44 1 12.909944487358057 0.000000000000000 18.000000000000000
88 44 2 14.909944487358057 2.000000000000000 19.000000000000000
89 45 1 12.909944487358057 0.000000000000000 20.000000000000000
90 45 2 14.909944487358057 2.000000000000000 21.000000000000000
91 46 1 12.909944487358057 6.454972243679029 12.000000000000000
92 46 2 14.909944487358057 8.454972243679029 13.000000000000000
93 47 1 12.909944487358057 6.454972243679029 14.000000000000000
94 47 2 14.909944487358057 8.454972243679029 15.000000000000000
95 48 1 12.909944487358057 6.454972243679029 16.000000000000000
96 48 2 14.909944487358057 8.454972243679029 17.000000000000000
97 49 1 12.909944487358057 6.454972243679029 18.000000000000000
98 49 2 14.909944487358057 8.454972243679029 19.000000000000000
99 50 1 12.909944487358057 6.454972243679029 20.000000000000000
100 50 2 14.909944487358057 8.454972243679029 21.000000000000000
101 51 1 12.909944487358057 12.909944487358057 12.000000000000000
102 51 2 14.909944487358057 14.909944487358057 13.000000000000000
103 52 1 12.909944487358057 12.909944487358057 14.000000000000000
104 52 2 14.909944487358057 14.909944487358057 15.000000000000000
105 53 1 12.909944487358057 12.909944487358057 16.000000000000000
106 53 2 14.909944487358057 14.909944487358057 17.000000000000000
107 54 1 12.909944487358057 12.909944487358057 18.000000000000000
108 54 2 14.909944487358057 14.909944487358057 19.000000000000000
109 55 1 12.909944487358057 12.909944487358057 20.000000000000000
110 55 2 14.909944487358057 14.909944487358057 21.000000000000000
111 56 1 12.909944487358057 19.364916731037084 12.000000000000000
112 56 2 14.909944487358057 21.364916731037084 13.000000000000000
113 57 1 12.909944487358057 19.364916731037084 14.000000000000000
114 57 2 14.909944487358057 21.364916731037084 15.000000000000000
115 58 1 12.909944487358057 19.364916731037084 16.000000000000000
116 58 2 14.909944487358057 21.364916731037084 17.000000000000000
117 59 1 12.909944487358057 19.364916731037084 18.000000000000000
118 59 2 14.909944487358057 21.364916731037084 19.000000000000000
119 60 1 12.909944487358057 19.364916731037084 20.000000000000000
120 60 2 14.909944487358057 21.364916731037084 21.000000000000000
121 61 1 19.364916731037084 0.000000000000000 12.000000000000000
122 61 2 21.364916731037084 2.000000000000000 13.000000000000000
123 62 1 19.364916731037084 0.000000000000000 14.000000000000000
124 62 2 21.364916731037084 2.000000000000000 15.000000000000000
125 63 1 19.364916731037084 0.000000000000000 16.000000000000000
126 63 2 21.364916731037084 2.000000000000000 17.000000000000000
127 64 1 19.364916731037084 0.000000000000000 18.000000000000000
128 64 2 21.364916731037084 2.000000000000000 19.000000000000000
129 65 1 19.364916731037084 0.000000000000000 20.000000000000000
130 65 2 21.364916731037084 2.000000000000000 21.000000000000000
131 66 1 19.364916731037084 6.454972243679029 12.000000000000000
132 66 2 21.364916731037084 8.454972243679029 13.000000000000000
133 67 1 19.364916731037084 6.454972243679029 14.000000000000000
134 67 2 21.364916731037084 8.454972243679029 15.000000000000000
135 68 1 19.364916731037084 6.454972243679029 16.000000000000000
136 68 2 21.364916731037084 8.454972243679029 17.000000000000000
137 69 1 19.364916731037084 6.454972243679029 18.000000000000000
138 69 2 21.364916731037084 8.454972243679029 19.000000000000000
139 70 1 19.364916731037084 6.454972243679029 20.000000000000000
140 70 2 21.364916731037084 8.454972243679029 21.000000000000000
141 71 1 19.364916731037084 12.909944487358057 12.000000000000000
142 71 2 21.364916731037084 14.909944487358057 13.000000000000000
143 72 1 19.364916731037084 12.909944487358057 14.000000000000000
144 72 2 21.364916731037084 14.909944487358057 15.000000000000000
145 73 1 19.364916731037084 12.909944487358057 16.000000000000000
146 73 2 21.364916731037084 14.909944487358057 17.000000000000000
147 74 1 19.364916731037084 12.909944487358057 18.000000000000000
148 74 2 21.364916731037084 14.909944487358057 19.000000000000000
149 75 1 19.364916731037084 12.909944487358057 20.000000000000000
150 75 2 21.364916731037084 14.909944487358057 21.000000000000000
151 76 1 19.364916731037084 19.364916731037084 12.000000000000000
152 76 2 21.364916731037084 21.364916731037084 13.000000000000000
153 77 1 19.364916731037084 19.364916731037084 14.000000000000000
154 77 2 21.364916731037084 21.364916731037084 15.000000000000000
155 78 1 19.364916731037084 19.364916731037084 16.000000000000000
156 78 2 21.364916731037084 21.364916731037084 17.000000000000000
157 79 1 19.364916731037084 19.364916731037084 18.000000000000000
158 79 2 21.364916731037084 21.364916731037084 19.000000000000000
159 80 1 19.364916731037084 19.364916731037084 20.000000000000000
160 80 2 21.364916731037084 21.364916731037084 21.000000000000000

Bonds

1 1 1 2
2 1 3 4
3 1 5 6
4 1 7 8
5 1 9 10
6 1 11 12
7 1 13 14
8 1 15 16
9 1 17 18
10 1 19 20
11 1 21 22
12 1 23 24
13 1 25 26
14 1 27 28
15 1 29 30
16 1 31 32
17 1 33 34
18 1 35 36
19 1 37 38
20 1 39 40
21 1 41 42
22 1 43 44
23 1 45 46
24 1 47 48
25 1 49 50
26 1 51 52
27 1 53 54
28 1 55 56
29 1 57 58
30 1 59 60
31 1 61 62
32 1 63 64
33 1 65 66
34 1 67 68
35 1 69 70
36 1 71 72
37 1 73 74
38 1 75 76
39 1 77 78
40 1 79 80
41 1 81 82
42 1 83 84
43 1 85 86
44 1 87 88
45 1 89 90
46 1 91 92
47 1 93 94
48 1 95 96
49 1 97 98
50 1 99 100
51 1 101 102
52 1 103 104
53 1 105 106
54 1 107 108
55 1 109 110
56 1 111 112
57 1 113 114
58 1 115 116
59 1 117 118
60 1 119 120
61 1 121 122
62 1 123 124
63 1 125 126
64 1 127 128
65 1 129 130
66 1 131 132
67 1 133 134
68 1 135 136
69 1 137 138
70 1 139 140
71 1 141 142
72 1 143 144
73 1 145 146
74 1 147 148
75 1 149 150
76 1 151 152
77 1 153 154
78 1 155 156
79 1 157 158
80 1 159 160
