LAMMPS data file

10 atoms
5 bonds

2 atom types
1 bond types

0.0 2.886751 xlo xhi
0.0 2.886751 ylo yhi
0.0 12.000000 zlo zhi

Masses

1 1
2 1

Atoms

1 1 1 0.000000000000000 0.000000000000000 2.000000000000000
2 1 2 2.000000000000000 2.000000000000000 3.000000000000000
3 2 1 0.000000000000000 0.000000000000000 4.000000000000000
4 2 2 2.000000000000000 2.000000000000000 5.000000000000000
5 3 1 0.000000000000000 0.000000000000000 6.000000000000000
6 3 2 2.000000000000000 2.000000000000000 7.000000000000000
7 4 1 0.000000000000000 0.000000000000000 8.000000000000000
8 4 2 2.000000000000000 2.000000000000000 9.000000000000000
9 5 1 0.000000000000000 0.000000000000000 10.000000000000000
10 5 2 2.000000000000000 2.000000000000000 11.000000000000000

Bonds

1 1 1 2
2 1 3 4
3 1 5 6
4 1 7 8
5 1 9 10
