LAMMPS data file

576 atoms
288 bonds

2 atom types
1 bond types

0.0 69.282032 xlo xhi
0.0 69.282032 ylo yhi
0.0 16.000000 zlo zhi

Masses

1 1
2 1

Atoms

1 1 1 0.000000000000000 0.000000000000000 12.000000000000000
2 1 2 2.000000000000000 2.000000000000000 13.000000000000000
3 2 1 0.000000000000000 0.000000000000000 14.000000000000000
4 2 2 2.000000000000000 2.000000000000000 15.000000000000000
5 3 1 0.000000000000000 5.773502691896257 12.000000000000000
6 3 2 2.000000000000000 7.773502691896257 13.000000000000000
7 4 1 0.000000000000000 5.773502691896257 14.000000000000000
8 4 2 2.000000000000000 7.773502691896257 15.000000000000000
9 5 1 0.000000000000000 11.547005383792515 12.000000000000000
10 5 2 2.000000000000000 13.547005383792515 13.000000000000000
11 6 1 0.000000000000000 11.547005383792515 14.000000000000000
12 6 2 2.000000000000000 13.547005383792515 15.000000000000000
13 7 1 0.000000000000000 17.320508075688771 12.000000000000000
14 7 2 2.000000000000000 19.320508075688771 13.000000000000000
15 8 1 0.000000000000000 17.320508075688771 14.000000000000000
16 8 2 2.000000000000000 19.320508075688771 15.000000000000000
17 9 1 0.000000000000000 23.094010767585029 12.000000000000000
18 9 2 2.000000000000000 25.094010767585029 13.000000000000000
19 10 1 0.000000000000000 23.094010767585029 14.000000000000000
20 10 2 2.000000000000000 25.094010767585029 15.000000000000000
21 11 1 0.000000000000000 28.867513459481287 12.000000000000000
22 11 2 2.000000000000000 30.867513459481287 13.000000000000000
23 12 1 0.000000000000000 28.867513459481287 14.000000000000000
24 12 2 2.000000000000000 30.867513459481287 15.000000000000000
25 13 1 0.000000000000000 34.641016151377542 12.000000000000000
26 13 2 2.000000000000000 36.641016151377542 13.000000000000000
27 14 1 0.000000000000000 34.641016151377542 14.000000000000000
28 14 2 2.000000000000000 36.641016151377542 15.000000000000000
29 15 1 0.000000000000000 40.414518843273804 12.000000000000000
30 15 2 2.000000000000000 42.414518843273804 13.000000000000000
31 16 1 0.000000000000000 40.414518843273804 14.000000000000000
32 16 2 2.000000000000000 42.414518843273804 15.000000000000000
33 17 1 0.000000000000000 46.188021535170058 12.000000000000000
34 17 2 2.000000000000000 48.188021535170058 13.000000000000000
35 18 1 0.000000000000000 46.188021535170058 14.000000000000000
36 18 2 2.000000000000000 48.188021535170058 15.000000000000000
37 19 1 0.000000000000000 51.961524227066313 12.000000000000000
38 19 2 2.000000000000000 53.961524227066313 13.000000000000000
39 20 1 0.000000000000000 51.961524227066313 14.000000000000000
40 20 2 2.000000000000000 53.961524227066313 15.000000000000000
41 21 1 0.000000000000000 57.735026918962575 12.000000000000000
42 21 2 2.000000000000000 59.735026918962575 13.000000000000000
43 22 1 0.000000000000000 57.735026918962575 14.000000000000000
44 22 2 2.000000000000000 59.735026918962575 15.000000000000000
45 23 1 0.000000000000000 63.508529610858830 12.000000000000000
46 23 2 2.000000000000000 65.508529610858830 13.000000000000000
47 24 1 0.000000000000000 63.508529610858830 14.000000000000000
48 24 2 2.000000000000000 65.508529610858830 15.000000000000000
49 25 1 5.773502691896257 0.000000000000000 12.000000000000000
50 25 2 7.773502691896257 2.000000000000000 13.000000000000000
51 26 1 5.773502691896257 0.000000000000000 14.000000000000000
52 26 2 7.773502691896257 2.000000000000000 15.000000000000000
53 27 1 5.773502691896257 5.773502691896257 12.000000000000000
54 27 2 7.773502691896257 7.773502691896257 13.000000000000000
55 28 1 5.773502691896257 5.773502691896257 14.000000000000000
56 28 2 7.773502691896257 7.773502691896257 15.000000000000000
57 29 1 5.773502691896257 11.547005383792515 12.000000000000000
58 29 2 7.773502691896257 13.547005383792515 13.000000000000000
59 30 1 5.773502691896257 11.547005383792515 14.000000000000000
60 30 2 7.773502691896257 13.547005383792515 15.000000000000000
61 31 1 5.773502691896257 17.320508075688771 12.000000000000000
62 31 2 7.773502691896257 19.320508075688771 13.000000000000000
63 32 1 5.773502691896257 17.320508075688771 14.000000000000000
64 32 2 7.773502691896257 19.320508075688771 15.000000000000000
65 33 1 5.773502691896257 23.094010767585029 12.000000000000000
66 33 2 7.773502691896257 25.094010767585029 13.000000000000000
67 34 1 5.773502691896257 23.094010767585029 14.000000000000000
68 34 2 7.773502691896257 25.094010767585029 15.000000000000000
69 35 1 5.773502691896257 28.867513459481287 12.000000000000000
70 35 2 7.773502691896257 30.867513459481287 13.000000000000000
71 36 1 5.773502691896257 28.867513459481287 14.000000000000000
72 36 2 7.773502691896257 30.867513459481287 15.000000000000000
73 37 1 5.773502691896257 34.641016151377542 12.000000000000000
74 37 2 7.773502691896257 36.641016151377542 13.000000000000000
75 38 1 5.773502691896257 34.641016151377542 14.000000000000000
76 38 2 7.773502691896257 36.641016151377542 15.000000000000000
77 39 1 5.773502691896257 40.414518843273804 12.000000000000000
78 39 2 7.773502691896257 42.414518843273804 13.000000000000000
79 40 1 5.773502691896257 40.414518843273804 14.000000000000000
80 40 2 7.773502691896257 42.414518843273804 15.000000000000000
81 41 1 5.773502691896257 46.188021535170058 12.000000000000000
82 41 2 7.773502691896257 48.188021535170058 13.000000000000000
83 42 1 5.773502691896257 46.188021535170058 14.000000000000000
84 42 2 7.773502691896257 48.188021535170058 15.000000000000000
85 43 1 5.773502691896257 51.961524227066313 12.000000000000000
86 43 2 7.773502691896257 53.961524227066313 13.000000000000000
87 44 1 5.773502691896257 51.961524227066313 14.000000000000000
88 44 2 7.773502691896257 53.961524227066313 15.000000000000000
89 45 1 5.773502691896257 57.735026918962575 12.000000000000000
90 45 2 7.773502691896257 59.735026918962575 13.000000000000000
91 46 1 5.773502691896257 57.735026918962575 14.000000000000000
92 46 2 7.773502691896257 59.735026918962575 15.000000000000000
93 47 1 5.773502691896257 63.508529610858830 12.000000000000000
94 47 2 7.773502691896257 65.508529610858830 13.000000000000000
95 48 1 5.773502691896257 63.508529610858830 14.000000000000000
96 48 2 7.773502691896257 65.508529610858830 15.000000000000000
97 49 1 11.547005383792515 0.000000000000000 12.000000000000000
98 49 2 13.547005383792515 2.000000000000000 13.000000000000000
99 50 1 11.547005383792515 0.000000000000000 14.000000000000000
100 50 2 13.547005383792515 2.000000000000000 15.000000000000000
101 51 1 11.547005383792515 5.773502691896257 12.000000000000000
102 51 2 13.547005383792515 7.773502691896257 13.000000000000000
103 52 1 11.547005383792515 5.773502691896257 14.000000000000000
104 52 2 13.547005383792515 7.773502691896257 15.000000000000000
105 53 1 11.547005383792515 11.547005383792515 12.000000000000000
106 53 2 13.547005383792515 13.547005383792515 13.000000000000000
107 54 1 11.547005383792515 11.547005383792515 14.000000000000000
108 54 2 13.547005383792515 13.547005383792515 15.000000000000000
109 55 1 11.547005383792515 17.320508075688771 12.000000000000000
110 55 2 13.547005383792515 19.320508075688771 13.000000000000000
111 56 1 11.547005383792515 17.320508075688771 14.000000000000000
112 56 2 13.547005383792515 19.320508075688771 15.000000000000000
113 57 1 11.547005383792515 23.094010767585029 12.000000000000000
114 57 2 13.547005383792515 25.094010767585029 13.000000000000000
115 58 1 11.547005383792515 23.094010767585029 14.000000000000000
116 58 2 13.547005383792515 25.094010767585029 15.000000000000000
117 59 1 11.547005383792515 28.867513459481287 12.000000000000000
118 59 2 13.547005383792515 30.867513459481287 13.000000000000000
119 60 1 11.547005383792515 28.867513459481287 14.000000000000000
120 60 2 13.547005383792515 30.867513459481287 15.000000000000000
121 61 1 11.547005383792515 34.641016151377542 12.000000000000000
122 61 2 13.547005383792515 36.641016151377542 13.000000000000000
123 62 1 11.547005383792515 34.641016151377542 14.000000000000000
124 62 2 13.547005383792515 36.641016151377542 15.000000000000000
125 63 1 11.547005383792515 40.414518843273804 12.000000000000000
126 63 2 13.547005383792515 42.414518843273804 13.000000000000000
127 64 1 11.547005383792515 40.414518843273804 14.000000000000000
128 64 2 13.547005383792515 42.414518843273804 15.000000000000000
129 65 1 11.547005383792515 46.188021535170058 12.000000000000000
130 65 2 13.547005383792515 48.188021535170058 13.000000000000000
131 66 1 11.547005383792515 46.188021535170058 14.000000000000000
132 66 2 13.547005383792515 48.188021535170058 15.000000000000000
133 67 1 11.547005383792515 51.961524227066313 12.000000000000000
134 67 2 13.547005383792515 53.961524227066313 13.000000000000000
135 68 1 11.547005383792515 51.961524227066313 14.000000000000000
136 68 2 13.547005383792515 53.961524227066313 15.000000000000000
137 69 1 11.547005383792515 57.735026918962575 12.000000000000000
138 69 2 13.547005383792515 59.735026918962575 13.000000000000000
139 70 1 11.547005383792515 57.735026918962575 14.000000000000000
140 70 2 13.547005383792515 59.735026918962575 15.000000000000000
141 71 1 11.547005383792515 63.508529610858830 12.000000000000000
142 71 2 13.547005383792515 65.508529610858830 13.000000000000000
143 72 1 11.547005383792515 63.508529610858830 14.000000000000000
144 72 2 13.547005383792515 65.508529610858830 15.000000000000000
145 73 1 17.320508075688771 0.000000000000000 12.000000000000000
146 73 2 19.320508075688771 2.000000000000000 13.000000000000000
147 74 1 17.320508075688771 0.000000000000000 14.000000000000000
148 74 2 19.320508075688771 2.000000000000000 15.000000000000000
149 75 1 17.320508075688771 5.773502691896257 12.000000000000000
150 75 2 19.320508075688771 7.773502691896257 13.000000000000000
151 76 1 17.320508075688771 5.773502691896257 14.000000000000000
152 76 2 19.320508075688771 7.773502691896257 15.000000000000000
153 77 1 17.320508075688771 11.547005383792515 12.000000000000000
154 77 2 19.320508075688771 13.547005383792515 13.000000000000000
155 78 1 17.320508075688771 11.547005383792515 14.000000000000000
156 78 2 19.320508075688771 13.547005383792515 15.000000000000000
157 79 1 17.320508075688771 17.320508075688771 12.000000000000000
158 79 2 19.320508075688771 19.320508075688771 13.000000000000000
159 80 1 17.320508075688771 17.320508075688771 14.000000000000000
160 80 2 19.320508075688771 19.320508075688771 15.000000000000000
161 81 1 17.320508075688771 23.094010767585029 12.000000000000000
162 81 2 19.320508075688771 25.094010767585029 13.000000000000000
163 82 1 17.320508075688771 23.094010767585029 14.000000000000000
164 82 2 19.320508075688771 25.094010767585029 15.000000000000000
165 83 1 17.320508075688771 28.867513459481287 12.000000000000000
166 83 2 19.320508075688771 30.867513459481287 13.000000000000000
167 84 1 17.320508075688771 28.867513459481287 14.000000000000000
168 84 2 19.320508075688771 30.867513459481287 15.000000000000000
169 85 1 17.320508075688771 34.641016151377542 12.000000000000000
170 85 2 19.320508075688771 36.641016151377542 13.000000000000000
171 86 1 17.320508075688771 34.641016151377542 14.000000000000000
172 86 2 19.320508075688771 36.641016151377542 15.000000000000000
173 87 1 17.320508075688771 40.414518843273804 12.000000000000000
174 87 2 19.320508075688771 42.414518843273804 13.000000000000000
175 88 1 17.320508075688771 40.414518843273804 14.000000000000000
176 88 2 19.320508075688771 42.414518843273804 15.000000000000000
177 89 1 17.320508075688771 46.188021535170058 12.000000000000000
178 89 2 19.320508075688771 48.188021535170058 13.000000000000000
179 90 1 17.320508075688771 46.188021535170058 14.000000000000000
180 90 2 19.320508075688771 48.188021535170058 15.000000000000000
181 91 1 17.320508075688771 51.961524227066313 12.000000000000000
182 91 2 19.320508075688771 53.961524227066313 13.000000000000000
183 92 1 17.320508075688771 51.961524227066313 14.000000000000000
184 92 2 19.320508075688771 53.961524227066313 15.000000000000000
185 93 1 17.320508075688771 57.735026918962575 12.000000000000000
186 93 2 19.320508075688771 59.735026918962575 13.000000000000000
187 94 1 17.320508075688771 57.735026918962575 14.000000000000000
188 94 2 19.320508075688771 59.735026918962575 15.000000000000000
189 95 1 17.320508075688771 63.508529610858830 12.000000000000000
190 95 2 19.320508075688771 65.508529610858830 13.000000000000000
191 96 1 17.320508075688771 63.508529610858830 14.000000000000000
192 96 2 19.320508075688771 65.508529610858830 15.000000000000000
193 97 1 23.094010767585029 0.000000000000000 12.000000000000000
194 97 2 25.094010767585029 2.000000000000000 13.000000000000000
195 98 1 23.094010767585029 0.000000000000000 14.000000000000000
196 98 2 25.094010767585029 2.000000000000000 15.000000000000000
197 99 1 23.094010767585029 5.773502691896257 12.000000000000000
198 99 2 25.094010767585029 7.773502691896257 13.000000000000000
199 100 1 23.094010767585029 5.773502691896257 14.000000000000000
200 100 2 25.094010767585029 7.773502691896257 15.000000000000000
201 101 1 23.094010767585029 11.547005383792515 12.000000000000000
202 101 2 25.094010767585029 13.547005383792515 13.000000000000000
203 102 1 23.094010767585029 11.547005383792515 14.000000000000000
204 102 2 25.094010767585029 13.547005383792515 15.000000000000000
205 103 1 23.094010767585029 17.320508075688771 12.000000000000000
206 103 2 25.094010767585029 19.320508075688771 13.000000000000000
207 104 1 23.094010767585029 17.320508075688771 14.000000000000000
208 104 2 25.094010767585029 19.320508075688771 15.000000000000000
209 105 1 23.094010767585029 23.094010767585029 12.000000000000000
210 105 2 25.094010767585029 25.094010767585029 13.000000000000000
211 106 1 23.094010767585029 23.094010767585029 14.000000000000000
212 106 2 25.094010767585029 25.094010767585029 15.000000000000000
213 107 1 23.094010767585029 28.867513459481287 12.000000000000000
214 107 2 25.094010767585029 30.867513459481287 13.000000000000000
215 108 1 23.094010767585029 28.867513459481287 14.000000000000000
216 108 2 25.094010767585029 30.867513459481287 15.000000000000000
217 109 1 23.094010767585029 34.641016151377542 12.000000000000000
218 109 2 25.094010767585029 36.641016151377542 13.000000000000000
219 110 1 23.094010767585029 34.641016151377542 14.000000000000000
220 110 2 25.094010767585029 36.641016151377542 15.000000000000000
221 111 1 23.094010767585029 40.414518843273804 12.000000000000000
222 111 2 25.094010767585029 42.414518843273804 13.000000000000000
223 112 1 23.094010767585029 40.414518843273804 14.000000000000000
224 112 2 25.094010767585029 42.414518843273804 15.000000000000000
225 113 1 23.094010767585029 46.188021535170058 12.000000000000000
226 113 2 25.094010767585029 48.188021535170058 13.000000000000000
227 114 1 23.094010767585029 46.188021535170058 14.000000000000000
228 114 2 25.094010767585029 48.188021535170058 15.000000000000000
229 115 1 23.094010767585029 51.961524227066313 12.000000000000000
230 115 2 25.094010767585029 53.961524227066313 13.000000000000000
231 116 1 23.094010767585029 51.961524227066313 14.000000000000000
232 116 2 25.094010767585029 53.961524227066313 15.000000000000000
233 117 1 23.094010767585029 57.735026918962575 12.000000000000000
234 117 2 25.094010767585029 59.735026918962575 13.000000000000000
235 118 1 23.094010767585029 57.735026918962575 14.000000000000000
236 118 2 25.094010767585029 59.735026918962575 15.000000000000000
237 119 1 23.094010767585029 63.508529610858830 12.000000000000000
238 119 2 25.094010767585029 65.508529610858830 13.000000000000000
239 120 1 23.094010767585029 63.508529610858830 14.000000000000000
240 120 2 25.094010767585029 65.508529610858830 15.000000000000000
241 121 1 28.867513459481287 0.000000000000000 12.000000000000000
242 121 2 30.867513459481287 2.000000000000000 13.000000000000000
243 122 1 28.867513459481287 0.000000000000000 14.000000000000000
244 122 2 30.867513459481287 2.000000000000000 15.000000000000000
245 123 1 28.867513459481287 5.773502691896257 12.000000000000000
246 123 2 30.867513459481287 7.773502691896257 13.000000000000000
247 124 1 28.867513459481287 5.773502691896257 14.000000000000000
248 124 2 30.867513459481287 7.773502691896257 15.000000000000000
249 125 1 28.867513459481287 11.547005383792515 12.000000000000000
250 125 2 30.867513459481287 13.547005383792515 13.000000000000000
251 126 1 28.867513459481287 11.547005383792515 14.000000000000000
252 126 2 30.867513459481287 13.547005383792515 15.000000000000000
253 127 1 28.867513459481287 17.320508075688771 12.000000000000000
254 127 2 30.867513459481287 19.320508075688771 13.000000000000000
255 128 1 28.867513459481287 17.320508075688771 14.000000000000000
256 128 2 30.867513459481287 19.320508075688771 15.000000000000000
257 129 1 28.867513459481287 23.094010767585029 12.000000000000000
258 129 2 30.867513459481287 25.094010767585029 13.000000000000000
259 130 1 28.867513459481287 23.094010767585029 14.000000000000000
260 130 2 30.867513459481287 25.094010767585029 15.000000000000000
261 131 1 28.867513459481287 28.867513459481287 12.000000000000000
262 131 2 30.867513459481287 30.867513459481287 13.000000000000000
263 132 1 28.867513459481287 28.867513459481287 14.000000000000000
264 132 2 30.867513459481287 30.867513459481287 15.000000000000000
265 133 1 28.867513459481287 34.641016151377542 12.000000000000000
266 133 2 30.867513459481287 36.641016151377542 13.000000000000000
267 134 1 28.867513459481287 34.641016151377542 14.000000000000000
268 134 2 30.867513459481287 36.641016151377542 15.000000000000000
269 135 1 28.867513459481287 40.414518843273804 12.000000000000000
270 135 2 30.867513459481287 42.414518843273804 13.000000000000000
271 136 1 28.867513459481287 40.414518843273804 14.000000000000000
272 136 2 30.867513459481287 42.414518843273804 15.000000000000000
273 137 1 28.867513459481287 46.188021535170058 12.000000000000000
274 137 2 30.867513459481287 48.188021535170058 13.000000000000000
275 138 1 28.867513459481287 46.188021535170058 14.000000000000000
276 138 2 30.867513459481287 48.188021535170058 15.000000000000000
277 139 1 28.867513459481287 51.961524227066313 12.000000000000000
278 139 2 30.867513459481287 53.961524227066313 13.000000000000000
279 140 1 28.867513459481287 51.961524227066313 14.000000000000000
280 140 2 30.867513459481287 53.961524227066313 15.000000000000000
281 141 1 28.867513459481287 57.735026918962575 12.000000000000000
282 141 2 30.867513459481287 59.735026918962575 13.000000000000000
283 142 1 28.867513459481287 57.735026918962575 14.000000000000000
284 142 2 30.867513459481287 59.735026918962575 15.000000000000000
285 143 1 28.867513459481287 63.508529610858830 12.000000000000000
286 143 2 30.867513459481287 65.508529610858830 13.000000000000000
287 144 1 28.867513459481287 63.508529610858830 14.000000000000000
288 144 2 30.867513459481287 65.508529610858830 15.000000000000000
289 145 1 34.641016151377542 0.000000000000000 12.000000000000000
290 145 2 36.641016151377542 2.000000000000000 13.000000000000000
291 146 1 34.641016151377542 0.000000000000000 14.000000000000000
292 146 2 36.641016151377542 2.000000000000000 15.000000000000000
293 147 1 34.641016151377542 5.773502691896257 12.000000000000000
294 147 2 36.641016151377542 7.773502691896257 13.000000000000000
295 148 1 34.641016151377542 5.773502691896257 14.000000000000000
296 148 2 36.641016151377542 7.773502691896257 15.000000000000000
297 149 1 34.641016151377542 11.547005383792515 12.000000000000000
298 149 2 36.641016151377542 13.547005383792515 13.000000000000000
299 150 1 34.641016151377542 11.547005383792515 14.000000000000000
300 150 2 36.641016151377542 13.547005383792515 15.000000000000000
301 151 1 34.641016151377542 17.320508075688771 12.000000000000000
302 151 2 36.641016151377542 19.320508075688771 13.000000000000000
303 152 1 34.641016151377542 17.320508075688771 14.000000000000000
304 152 2 36.641016151377542 19.320508075688771 15.000000000000000
305 153 1 34.641016151377542 23.094010767585029 12.000000000000000
306 153 2 36.641016151377542 25.094010767585029 13.000000000000000
307 154 1 34.641016151377542 23.094010767585029 14.000000000000000
308 154 2 36.641016151377542 25.094010767585029 15.000000000000000
309 155 1 34.641016151377542 28.867513459481287 12.000000000000000
310 155 2 36.641016151377542 30.867513459481287 13.000000000000000
311 156 1 34.641016151377542 28.867513459481287 14.000000000000000
312 156 2 36.641016151377542 30.867513459481287 15.000000000000000
313 157 1 34.641016151377542 34.641016151377542 12.000000000000000
314 157 2 36.641016151377542 36.641016151377542 13.000000000000000
315 158 1 34.641016151377542 34.641016151377542 14.000000000000000
316 158 2 36.641016151377542 36.641016151377542 15.000000000000000
317 159 1 34.641016151377542 40.414518843273804 12.000000000000000
318 159 2 36.641016151377542 42.414518843273804 13.000000000000000
319 160 1 34.641016151377542 40.414518843273804 14.000000000000000
320 160 2 36.641016151377542 42.414518843273804 15.000000000000000
321 161 1 34.641016151377542 46.188021535170058 12.000000000000000
322 161 2 36.641016151377542 48.188021535170058 13.000000000000000
323 162 1 34.641016151377542 46.188021535170058 14.000000000000000
324 162 2 36.641016151377542 48.188021535170058 15.000000000000000
325 163 1 34.641016151377542 51.961524227066313 12.000000000000000
326 163 2 36.641016151377542 53.961524227066313 13.000000000000000
327 164 1 34.641016151377542 51.961524227066313 14.000000000000000
328 164 2 36.641016151377542 53.961524227066313 15.000000000000000
329 165 1 34.641016151377542 57.735026918962575 12.000000000000000
330 165 2 36.641016151377542 59.735026918962575 13.000000000000000
331 166 1 34.641016151377542 57.735026918962575 14.000000000000000
332 166 2 36.641016151377542 59.735026918962575 15.000000000000000
333 167 1 34.641016151377542 63.508529610858830 12.000000000000000
334 167 2 36.641016151377542 65.508529610858830 13.000000000000000
335 168 1 34.641016151377542 63.508529610858830 14.000000000000000
336 168 2 36.641016151377542 65.508529610858830 15.000000000000000
337 169 1 40.414518843273804 0.000000000000000 12.000000000000000
338 169 2 42.414518843273804 2.000000000000000 13.000000000000000
339 170 1 40.414518843273804 0.000000000000000 14.000000000000000
340 170 2 42.414518843273804 2.000000000000000 15.000000000000000
341 171 1 40.414518843273804 5.773502691896257 12.000000000000000
342 171 2 42.414518843273804 7.773502691896257 13.000000000000000
343 172 1 40.414518843273804 5.773502691896257 14.000000000000000
344 172 2 42.414518843273804 7.773502691896257 15.000000000000000
345 173 1 40.414518843273804 11.547005383792515 12.000000000000000
346 173 2 42.414518843273804 13.547005383792515 13.000000000000000
347 174 1 40.414518843273804 11.547005383792515 14.000000000000000
348 174 2 42.414518843273804 13.547005383792515 15.000000000000000
349 175 1 40.414518843273804 17.320508075688771 12.000000000000000
350 175 2 42.414518843273804 19.320508075688771 13.000000000000000
351 176 1 40.414518843273804 17.320508075688771 14.000000000000000
352 176 2 42.414518843273804 19.320508075688771 15.000000000000000
353 177 1 40.414518843273804 23.094010767585029 12.000000000000000
354 177 2 42.414518843273804 25.094010767585029 13.000000000000000
355 178 1 40.414518843273804 23.094010767585029 14.000000000000000
356 178 2 42.414518843273804 25.094010767585029 15.000000000000000
357 179 1 40.414518843273804 28.867513459481287 12.000000000000000
358 179 2 42.414518843273804 30.867513459481287 13.000000000000000
359 180 1 40.414518843273804 28.867513459481287 14.000000000000000
360 180 2 42.414518843273804 30.867513459481287 15.000000000000000
361 181 1 40.414518843273804 34.641016151377542 12.000000000000000
362 181 2 42.414518843273804 36.641016151377542 13.000000000000000
363 182 1 40.414518843273804 34.641016151377542 14.000000000000000
364 182 2 42.414518843273804 36.641016151377542 15.000000000000000
365 183 1 40.414518843273804 40.414518843273804 12.000000000000000
366 183 2 42.414518843273804 42.414518843273804 13.000000000000000
367 184 1 40.414518843273804 40.414518843273804 14.000000000000000
368 184 2 42.414518843273804 42.414518843273804 15.000000000000000
369 185 1 40.414518843273804 46.188021535170058 12.000000000000000
370 185 2 42.414518843273804 48.188021535170058 13.000000000000000
371 186 1 40.414518843273804 46.188021535170058 14.000000000000000
372 186 2 42.414518843273804 48.188021535170058 15.000000000000000
373 187 1 40.414518843273804 51.961524227066313 12.000000000000000
374 187 2 42.414518843273804 53.961524227066313 13.000000000000000
375 188 1 40.414518843273804 51.961524227066313 14.000000000000000
376 188 2 42.414518843273804 53.961524227066313 15.000000000000000
377 189 1 40.414518843273804 57.735026918962575 12.000000000000000
378 189 2 42.414518843273804 59.735026918962575 13.000000000000000
379 190 1 40.414518843273804 57.735026918962575 14.000000000000000
380 190 2 42.414518843273804 59.735026918962575 15.000000000000000
381 191 1 40.414518843273804 63.508529610858830 12.000000000000000
382 191 2 42.414518843273804 65.508529610858830 13.000000000000000
383 192 1 40.414518843273804 63.508529610858830 14.000000000000000
384 192 2 42.414518843273804 65.508529610858830 15.000000000000000
385 193 1 46.188021535170058 0.000000000000000 12.000000000000000
386 193 2 48.188021535170058 2.000000000000000 13.000000000000000
387 194 1 46.188021535170058 0.000000000000000 14.000000000000000
388 194 2 48.188021535170058 2.000000000000000 15.000000000000000
389 195 1 46.188021535170058 5.773502691896257 12.000000000000000
390 195 2 48.188021535170058 7.773502691896257 13.000000000000000
391 196 1 46.188021535170058 5.773502691896257 14.000000000000000
392 196 2 48.188021535170058 7.773502691896257 15.000000000000000
393 197 1 46.188021535170058 11.547005383792515 12.000000000000000
394 197 2 48.188021535170058 13.547005383792515 13.000000000000000
395 198 1 46.188021535170058 11.547005383792515 14.000000000000000
396 198 2 48.188021535170058 13.547005383792515 15.000000000000000
397 199 1 46.188021535170058 17.320508075688771 12.000000000000000
398 199 2 48.188021535170058 19.320508075688771 13.000000000000000
399 200 1 46.188021535170058 17.320508075688771 14.000000000000000
400 200 2 48.188021535170058 19.320508075688771 15.000000000000000
401 201 1 46.188021535170058 23.094010767585029 12.000000000000000
402 201 2 48.188021535170058 25.094010767585029 13.000000000000000
403 202 1 46.188021535170058 23.094010767585029 14.000000000000000
404 202 2 48.188021535170058 25.094010767585029 15.000000000000000
405 203 1 46.188021535170058 28.867513459481287 12.000000000000000
406 203 2 48.188021535170058 30.867513459481287 13.000000000000000
407 204 1 46.188021535170058 28.867513459481287 14.000000000000000
408 204 2 48.188021535170058 30.867513459481287 15.000000000000000
409 205 1 46.188021535170058 34.641016151377542 12.000000000000000
410 205 2 48.188021535170058 36.641016151377542 13.000000000000000
411 206 1 46.188021535170058 34.641016151377542 14.000000000000000
412 206 2 48.188021535170058 36.641016151377542 15.000000000000000
413 207 1 46.188021535170058 40.414518843273804 12.000000000000000
414 207 2 48.188021535170058 42.414518843273804 13.000000000000000
415 208 1 46.188021535170058 40.414518843273804 14.000000000000000
416 208 2 48.188021535170058 42.414518843273804 15.000000000000000
417 209 1 46.188021535170058 46.188021535170058 12.000000000000000
418 209 2 48.188021535170058 48.188021535170058 13.000000000000000
419 210 1 46.188021535170058 46.188021535170058 14.000000000000000
420 210 2 48.188021535170058 48.188021535170058 15.000000000000000
421 211 1 46.188021535170058 51.961524227066313 12.000000000000000
422 211 2 48.188021535170058 53.961524227066313 13.000000000000000
423 212 1 46.188021535170058 51.961524227066313 14.000000000000000
424 212 2 48.188021535170058 53.961524227066313 15.000000000000000
425 213 1 46.188021535170058 57.735026918962575 12.000000000000000
426 213 2 48.188021535170058 59.735026918962575 13.000000000000000
427 214 1 46.188021535170058 57.735026918962575 14.000000000000000
428 214 2 48.188021535170058 59.735026918962575 15.000000000000000
429 215 1 46.188021535170058 63.508529610858830 12.000000000000000
430 215 2 48.188021535170058 65.508529610858830 13.000000000000000
431 216 1 46.188021535170058 63.508529610858830 14.000000000000000
432 216 2 48.188021535170058 65.508529610858830 15.000000000000000
433 217 1 51.961524227066313 0.000000000000000 12.000000000000000
434 217 2 53.961524227066313 2.000000000000000 13.000000000000000
435 218 1 51.961524227066313 0.000000000000000 14.000000000000000
436 218 2 53.961524227066313 2.000000000000000 15.000000000000000
437 219 1 51.961524227066313 5.773502691896257 12.000000000000000
438 219 2 53.961524227066313 7.773502691896257 13.000000000000000
439 220 1 51.961524227066313 5.773502691896257 14.000000000000000
440 220 2 53.961524227066313 7.773502691896257 15.000000000000000
441 221 1 51.961524227066313 11.547005383792515 12.000000000000000
442 221 2 53.961524227066313 13.547005383792515 13.000000000000000
443 222 1 51.961524227066313 11.547005383792515 14.000000000000000
444 222 2 53.961524227066313 13.547005383792515 15.000000000000000
445 223 1 51.961524227066313 17.320508075688771 12.000000000000000
446 223 2 53.961524227066313 19.320508075688771 13.000000000000000
447 224 1 51.961524227066313 17.320508075688771 14.000000000000000
448 224 2 53.961524227066313 19.320508075688771 15.000000000000000
449 225 1 51.961524227066313 23.094010767585029 12.000000000000000
450 225 2 53.961524227066313 25.094010767585029 13.000000000000000
451 226 1 51.961524227066313 23.094010767585029 14.000000000000000
452 226 2 53.961524227066313 25.094010767585029 15.000000000000000